formula,Ehull
W4Cr2Cu3N3,0.36262023
Cr4Cr2Al3N3,0.36285242
Mn4Nb2Pb3N3,0.36286154
W4Ti2Ni3N3,0.36300313
Mo4V2Si3N3,0.3630875
Ti4W2Sb3N3,0.3633911
W4V2As3N3,0.36412582
V4Ta2Pb3N3,0.36468652
Sc4V2Co3C3,0.3649785
W4Nb2Ge3N3,0.36501494
Mn4Ta2Bi3C3,0.36508483
Cr4Mn2Al3N3,0.36555567
Lu4Cr2Bi3N3,0.3656056
Sc4Cr2Ni3N3,0.3656623
W4Y2P3C3,0.36571464
W4Lu2Ge3N3,0.36582175
Mn4Cr2Bi3N3,0.36596844
Mo4Sc2Si3N3,0.3665107
Lu4W2Tl3N3,0.36669737
W4Ta2Zn3N3,0.36682403
Mn4Ta2Al3N3,0.36734882
Sc4W2Au3N3,0.36740768
W4Nb2Zn3N3,0.36754507
Y4Mo2As3C3,0.3675628
W4Ta2Cu3N3,0.3675738
V4W2Bi3C3,0.36762682
Mo4Cr2Pb3N3,0.36763754
V4W2S3N3,0.36785054
Mo4Zr2Al3N3,0.36792192
W4Ti2P3N3,0.36807865
Y4V2P3N3,0.3682248
Mo4W2Au3N3,0.3685569
V4Mn2Pb3N3,0.36889085
Ta4Cr2Fe3C3,0.36892873
Ta4Mo2Bi3C3,0.36935225
V4Cr2Pb3N3,0.369364
Mn4Mo2Bi3N3,0.36944988
Cr4Hf2Tl3N3,0.36946627
W4Mo2As3N3,0.36968923
W4Mn2Cu3N3,0.36969516
Mo4Y2S3C3,0.3698451
Mo4Ta2Sb3N3,0.37014392
Ta4Mn2Bi3C3,0.3702205
Zr4Mo2Bi3N3,0.37035286
Sc4Mo2Cu3N3,0.37040526
W4Cr2Cd3N3,0.37043232
Mo4Sc2Bi3N3,0.37056088
Nb4W2Fe3C3,0.3707464
Y4Mn2S3C3,0.37093794
Nb4W2Si3N3,0.3711523
Mn4Ti2Pb3N3,0.3713836
Lu4W2P3N3,0.37153563
Hf4Mn2Bi3N3,0.37172607
Sc4Ta2Co3N3,0.37187606
Cr4Lu2Pb3N3,0.3721749
W4Cr2In3N3,0.37263
Mn4V2Pb3N3,0.3726969
Lu4Zr2Co3N3,0.37282068
Cr4W2Sb3N3,0.37283313
W4V2Au3N3,0.3728602
W4Hf2Cu3N3,0.37303004
W4Hf2P3N3,0.37356758
Ta4Mn2Cu3N3,0.3736067
W4Sc2Co3N3,0.37372017
Nb4W2Co3N3,0.37386683
Y4Hf2Ni3N3,0.37397873
Mo4Nb2Si3N3,0.3740227
Lu4V2Ni3C3,0.37406877
W4Mn2P3N3,0.37409312
Y4Cr2Ni3N3,0.37421483
W4Nb2Au3N3,0.37439552
Ta4Hf2Pb3N3,0.37442842
Mn4Hf2Tl3N3,0.37491256
W4Zr2P3N3,0.37519908
W4V2Tl3C3,0.37552497
Y4Ti2As3N3,0.37552634
Y4V2As3N3,0.37604707
Mo4Ta2S3N3,0.37615654
Ta4Mn2Sb3N3,0.376191
W4Zr2Ge3N3,0.37635833
Y4Ti2P3C3,0.37661624
Mo4Mo2Bi3C3,0.37717056
W4Y2In3N3,0.3772251
Ta4Mn2Co3C3,0.37727594
Cr4Hf2Pb3N3,0.37742013
W4Nb2As3N3,0.37762773
Sc4Nb2Fe3N3,0.37779963
Mn4Y2S3C3,0.37783483
Y4W2Ni3N3,0.3778452
W4Lu2Co3N3,0.3780532
Zr4Cr2Ni3N3,0.37817764
Ta4Mo2Fe3C3,0.37878773
Y4Sc2Ni3N3,0.37912014
Mo4Ti2Al3N3,0.37959462
Hf4Ta2Fe3N3,0.37963507
Y4Mn2Fe3C3,0.37969342
Ta4W2In3N3,0.38000935
W4Hf2As3N3,0.38032794
Nb4Mo2Cu3N3,0.3804063
Mo4Lu2Pb3N3,0.3805804
Cr4V2Pb3N3,0.38095206
Ta4W2Cd3N3,0.38102484
Sc4W2Pb3N3,0.38111255
Cr4Ta2Bi3C3,0.38111848
Lu4Mo2Cu3N3,0.3811673
Mo4Ti2Tl3N3,0.38148382
Nb4Mn2Bi3N3,0.3816633
Mo4Sc2Pb3N3,0.38192147
Cr4Zr2Pb3N3,0.38195094
Mn4Y2Pb3N3,0.38203427
Mn4W2Tl3N3,0.38229796
Mo4Cr2Bi3N3,0.3824492
Nb4Mn2Co3C3,0.38245815
Mn4Y2P3N3,0.38249406
Y4Mo2Ni3N3,0.38258
Zr4Cr2Co3N3,0.3832972
Ta4Zr2Bi3N3,0.38330588
Lu4Mn2P3N3,0.3834376
Lu4Mn2Al3N3,0.3834711
Mo4Mo2Bi3N3,0.3839823
W4Cr2Tl3C3,0.38432035
Mn4W2Bi3C3,0.38438118
Mn4Lu2S3C3,0.38462654
Mn4Zr2Pb3N3,0.38497174
Cr4Mo2Al3N3,0.38506898
Mo4V2Tl3N3,0.38519266
Lu4Mo2Bi3N3,0.38526735
Mn4Cr2Al3N3,0.38544706
V4Y2P3C3,0.386283
Ta4W2As3N3,0.38635224
Lu4Mo2Ni3C3,0.38636515
Ta4W2Cu3N3,0.38649815
Ta4Ti2Bi3N3,0.38690746
W4V2Cu3N3,0.38693315
V4W2Sb3N3,0.3869966
Lu4Cr2Ni3N3,0.38710588
Mo4Cr2Si3N3,0.3872497
Lu4W2Si3N3,0.3874153
Y4Hf2Co3N3,0.38753843
Y4Mn2As3N3,0.38754573
Sc4Mo2Fe3C3,0.3876565
W4Lu2Cd3N3,0.38771474
Ta4W2Bi3C3,0.38771784
W4Y2Sn3N3,0.3885401
Mo4Zr2Pb3N3,0.38942552
Cr4Zr2Bi3N3,0.38945374
Y4W2Pb3N3,0.38958332
Nb4Cr2Bi3N3,0.38977116
Mo4Ta2Al3N3,0.3898126
Sc4W2Co3C3,0.3898168
Cr4V2Bi3N3,0.38988537
Mo4Hf2Si3N3,0.39002723
Mo4Ta2Bi3C3,0.39025417
Mo4W2S3N3,0.39040256
Ta4W2Ge3N3,0.39087582
W4V2In3N3,0.3915747
Lu4Ti2Ni3C3,0.39244014
W4Ti2Bi3C3,0.39347562
Mn4V2Bi3N3,0.39393774
W4Y2Bi3C3,0.39407513
Ti4W2Tl3N3,0.39416203
W4Zr2Bi3C3,0.3941967
Mo4Nb2Tl3N3,0.39428866
Mo4Ti2Pb3N3,0.3943573
Lu4W2Sb3N3,0.39485914
Y4Nb2Co3N3,0.39501092
Ta4Y2Bi3N3,0.39502355
Mn4Ta2Tl3N3,0.3950885
Mn4Lu2Tl3N3,0.39511076
Ta4W2P3N3,0.39523345
Mn4Lu2P3N3,0.3953058
Cr4Ti2Pb3N3,0.39553818
Nb4Cr2Fe3C3,0.39564377
W4W2Cd3N3,0.3957006
Mn4Ti2Tl3N3,0.39634812
Lu4Hf2Ni3N3,0.39646402
Sc4Nb2Co3N3,0.39671275
Mn4W2Pb3N3,0.39676094
Mn4Mn2Al3N3,0.39687374
Mo4Mo2Pb3N3,0.3975726
Zr4W2Sb3N3,0.3976118
Nb4Mo2Pb3N3,0.39859968
W4Sc2Sn3N3,0.39895216
Mo4Ti2Si3N3,0.39937904
W4Sc2Cd3N3,0.39959383
Zr4Nb2Fe3N3,0.39987355
W4W2As3N3,0.4003077
W4Mo2P3N3,0.40034422
Sc4V2Fe3C3,0.4004169
W4W2P3N3,0.40052706
Mn4Lu2Pb3N3,0.40106744
Y4Cr2P3N3,0.4011024
Hf4Cr2Bi3N3,0.4013704
W4Sc2In3N3,0.40147236
Mn4Hf2Pb3N3,0.401596
Mn4Sc2Tl3N3,0.40168744
Hf4Cr2Co3N3,0.401737
Cr4Ti2Bi3N3,0.40216678
Y4Hf2Ni3C3,0.4030519
Lu4Hf2Co3N3,0.40350577
Ta4Mo2Cu3N3,0.40360302
Mo4W2Bi3C3,0.40374056
W4Hf2Bi3C3,0.40399054
Cr4Cr2Bi3N3,0.40420446
V4Cr2Bi3N3,0.40424034
V4Mn2Bi3N3,0.40435767
Sc4Mo2Ni3N3,0.4051992
Mn4Sc2Bi3N3,0.40692598
W4Ta2Au3N3,0.40695027
Ta4V2Pb3N3,0.40709707
Lu4Zr2Fe3N3,0.40719622
Cr4Nb2Bi3N3,0.40724257
Lu4Mo2Ni3N3,0.4074291
Sc4Ti2Fe3N3,0.40797314
Mo4Hf2Tl3N3,0.4080001
W4Nb2P3N3,0.4080254
Ta4Mo2Sb3N3,0.4080564
W4Y2Al3N3,0.4085623
Mn4Nb2Bi3N3,0.40882832
Mn4Ti2Bi3N3,0.4088671
Cr4Ta2Pb3N3,0.40891984
W4Hf2Cd3N3,0.40915704
W4Mo2S3C3,0.40929368
W4Nb2Tl3C3,0.40951085
W4Zr2Cd3N3,0.40991205
W4Hf2Pb3C3,0.41024384
Cr4Mo2Bi3N3,0.4102959
Cr4Sc2Pb3N3,0.4110667
Mo4V2Al3N3,0.41122538
Lu4W2Ni3C3,0.41142178
Mo4Hf2Pb3N3,0.41143534
W4Y2Si3N3,0.41168356
Y4V2As3C3,0.41180435
Ta4Ta2Pb3N3,0.41189614
Nb4W2Sb3N3,0.41201463
Ta4Mo2S3N3,0.41241628
W4Hf2In3N3,0.41285047
W4V2P3N3,0.41317633
Nb4W2S3N3,0.4134967
Mo4Nb2Al3N3,0.41356072
Nb4Mo2Bi3N3,0.41362622
W4Ti2In3N3,0.41385043
Y4Mn2Fe3N3,0.4140505
Y4Cr2Fe3N3,0.4142002
W4Mo2In3N3,0.4145655
W4Lu2In3N3,0.4147149
W4Zr2Al3N3,0.41483423
W4Ta2As3N3,0.41494268
Cr4Sc2Bi3N3,0.41511938
W4Ti2Sn3N3,0.41576338
Y4Ti2Co3N3,0.41599524
W4Zr2In3N3,0.41612786
Hf4Mo2Bi3N3,0.4162028
Y4V2Fe3N3,0.4162937
W4Lu2Al3N3,0.41636136
Mo4Nb2Pb3N3,0.4173493
W4Mn2Tl3C3,0.41750565
W4Ta2Ge3N3,0.4176283
W4Nb2Pb3C3,0.4176685
Ta4W2Pb3C3,0.41790447
Zr4W2S3N3,0.418055
Sc4Mo2Fe3N3,0.41814578
Mo4Ta2Si3N3,0.41822237
W4Ta2Tl3C3,0.4183327
Mn4Ta2Pb3N3,0.4183634
Cr4Ta2Tl3N3,0.4184234
W4V2Cd3N3,0.41868228
Lu4Mn2Ni3C3,0.4187345
W4Lu2Sn3N3,0.41911748
Lu4W2Pb3N3,0.41943598
V4W2Tl3N3,0.41965282
Cr4Hf2Bi3N3,0.42038944
W4Mo2Tl3C3,0.42098448
W4W2S3C3,0.4213302
W4Lu2P3N3,0.4215233
Cr4W2Bi3C3,0.4216477
W4Cr2P3N3,0.42168766
Ti4W2Pb3N3,0.4218399
Y4Mo2P3C3,0.42199826
Mn4Zr2Bi3N3,0.42248473
Ta4Nb2Pb3N3,0.42257667
Y4Mn2P3N3,0.42258066
Zr4Ta2Fe3N3,0.42276403
W4Mo2Pb3C3,0.422774
Cr4W2Tl3N3,0.42356008
Mo4Ti2Bi3N3,0.42438754
Ta4Lu2Bi3N3,0.42531225
Sc4W2Bi3N3,0.42613736
Mo4Ta2Tl3N3,0.42616493
W4Sc2Al3N3,0.42626315
Mn4W2Si3N3,0.42632702
W4Ti2Cu3N3,0.42666793
Sc4Mn2Ni3N3,0.42687535
Sc4Cr2Fe3N3,0.42806113
W4Cr2Sn3N3,0.4280775
Hf4Mn2Co3N3,0.42817596
Mo4Lu2Bi3N3,0.4284323
Mo4V2Bi3N3,0.42844748
W4Sc2Si3N3,0.42864975
Lu4Ti2Ni3N3,0.42908487
W4Ti2Al3N3,0.4295392
Mo4V2Pb3N3,0.4297333
Lu4Mn2Ni3N3,0.4299433
Sc4Mn2Fe3N3,0.4300788
Zr4W2Tl3N3,0.4304553
Mo4W2Tl3N3,0.43085232
Y4Cr2As3C3,0.4311527
W4W2Tl3C3,0.43178365
W4Zr2Sn3N3,0.4318506
W4Ta2P3N3,0.43202266
Cr4W2Si3N3,0.432043
Mn4W2Bi3N3,0.43211398
Hf4W2Tl3N3,0.43257532
Mn4Sc2Pb3N3,0.43311325
W4W2In3N3,0.43353125
Mo4Mn2Si3N3,0.43414816
Mn4Hf2Bi3N3,0.43420646
W4Nb2In3N3,0.43495876
Y4Mn2Co3C3,0.43609545
Zr4Mn2Co3N3,0.4361349
Lu4Mn2Co3N3,0.43619862
W4Mn2S3N3,0.43714428
Y4Cr2As3N3,0.4378988
Lu4W2Ni3N3,0.43792146
Hf4Mo2Co3N3,0.437972
W4Ta2In3N3,0.43850914
Hf4W2Sb3N3,0.4386336
Nb4W2Tl3N3,0.438663
V4Mo2Bi3N3,0.43866727
Y4W2Bi3N3,0.4391339
Nb4Ta2Bi3N3,0.43953395
V4Y2S3C3,0.4399848
W4Y2P3N3,0.4400891
W4Cr2Pb3C3,0.44031474
Ta4Hf2Bi3N3,0.44289652
Ta4Cr2Tl3N3,0.44317812
Hf4W2S3N3,0.4433637
W4V2Pb3C3,0.44355044
W4V2Sn3N3,0.44459412
W4Hf2Si3N3,0.44471827
Y4Ti2Ni3N3,0.44504875
W4Lu2Si3N3,0.445077
Mo4Zr2Bi3N3,0.44532472
Lu4Hf2Fe3N3,0.4453911
Ta4W2Si3N3,0.44631147
W4Nb2Bi3C3,0.44667402
W4Ti2Cd3N3,0.4470875
W4Sc2S3N3,0.44729012
W4Hf2Al3N3,0.4475438
Ta4Nb2Bi3N3,0.44778103
Cr4Lu2Bi3N3,0.44817528
W4Lu2S3C3,0.4484628
Y4W2Co3N3,0.44860816
Y4Mn2Si3N3,0.4487895
W4W2Pb3C3,0.44915622
Y4Mn2Ni3N3,0.44920903
Y4V2Co3N3,0.4492845
W4V2Bi3C3,0.4493973
V4Ta2Bi3N3,0.44993734
Cr4W2Al3N3,0.4503415
W4Zr2Si3N3,0.45092472
Mo4Ta2Pb3N3,0.4516412
Y4Mn2Co3N3,0.4521482
Y4W2Fe3N3,0.45258465
W4V2Si3N3,0.4527643
Hf4Mo2Ni3N3,0.4529678
Lu4Mn2As3C3,0.45322484
Mo4Nb2Bi3N3,0.45344982
Mn4Lu2Bi3N3,0.45355073
Hf4Mo2Fe3C3,0.45422173
Ta4W2Sn3N3,0.45498946
Y4V2P3C3,0.45558766
Zr4Mo2Co3N3,0.45596787
W4Mo2Si3N3,0.45603248
W4Mo2Sn3N3,0.457525
Hf4V2Fe3N3,0.4623449
W4W2Si3N3,0.4627403
Y4V2Ni3C3,0.46430597
Ti4W2Bi3N3,0.46440762
W4Ta2Cd3N3,0.4647848
W4Mn2Pb3C3,0.46498135
Y4V2Co3C3,0.4667559
Ta4Mn2Tl3N3,0.46702036
W4Sc2Sb3N3,0.46782595
W4Nb2Cd3N3,0.46808606
Lu4W2Co3C3,0.4686811
W4Ta2Bi3C3,0.4694183
W4W2Sn3N3,0.469453
Ta4Cr2Pb3N3,0.46977636
Mn4Mo2Al3N3,0.4698151
W4Ti2Si3N3,0.47005656
Lu4Mn2Fe3C3,0.47025934
Sc4V2Co3N3,0.47038442
Mn4W2Al3N3,0.47069478
Hf4Mn2Co3C3,0.47114784
Mo4Cr2Al3N3,0.47150594
Zr4W2Ni3N3,0.47168785
W4Ta2Pb3C3,0.4725609
W4Mn2Sb3N3,0.47301784
Mo4W2Si3N3,0.47402897
W4Mn2Bi3C3,0.47461772
Ta4V2Bi3N3,0.47524437
W4Nb2Si3N3,0.47595748
Mo4Hf2Bi3N3,0.47663352
Ta4Ta2Bi3N3,0.47757444
W4Hf2Sn3N3,0.47757614
W4V2S3N3,0.47758836
Hf4Mn2Fe3N3,0.4782331
Cr4W2Pb3N3,0.4789823
W4Y2S3C3,0.4798561
W4Cr2Sb3N3,0.48000935
Ta4Mo2Tl3N3,0.48010188
Lu4Ti2Co3N3,0.4802857
Cr4Y2S3C3,0.48059878
W4Mo2Sb3N3,0.4813627
W4Ta2Al3N3,0.48170957
W4Cr2S3N3,0.4817457
W4V2Al3N3,0.48176646
Mo4W2Pb3N3,0.48199895
W4Cr2Bi3C3,0.48384926
W4Y2Sb3N3,0.4844051
W4Mo2Bi3C3,0.48456398
W4Nb2Sn3N3,0.48519725
Ta4W2Tl3N3,0.4852352
Zr4Mn2Co3C3,0.48614332
W4Ta2Si3N3,0.4869222
Lu4W2Bi3N3,0.4874926
Zr4W2Bi3N3,0.48795554
Zr4V2Fe3N3,0.48826846
W4Y2Tl3N3,0.48906434
Sc4Cr2Co3N3,0.48997083
Lu4Mn2Si3N3,0.49103558
W4W2Sb3N3,0.49118617
W4W2Bi3C3,0.49241883
Mn4Ta2Bi3N3,0.49301168
Hf4Mo2Fe3N3,0.49476975
W4Mo2S3N3,0.4948491
W4Y2S3N3,0.49534
Lu4Nb2Fe3N3,0.4953787
Cr4Ta2Bi3N3,0.49588734
Y4Cr2Co3N3,0.49590996
W4Ti2S3N3,0.49659374
Hf4Cr2Fe3N3,0.4966706
Y4V2Fe3C3,0.49723804
Lu4Mn2Co3C3,0.49774942
Ta4W2Sb3N3,0.4982642
Zr4W2Pb3N3,0.49831703
Mo4Mo2Al3N3,0.50300217
Hf4W2Ni3N3,0.5032034
Zr4Mo2Ni3N3,0.5034341
W4Lu2Sb3N3,0.50399566
Mo4Mn2Al3N3,0.5042113
Mo4Ta2Bi3N3,0.50634325
Y4Mo2Co3N3,0.5065252
Zr4Cr2Fe3N3,0.5078169
W4Nb2Al3N3,0.5083612
W4Ta2Sn3N3,0.5089476
W4Cr2Si3N3,0.509252
Lu4Nb2Co3N3,0.5095971
W4Y2Bi3N3,0.5112991
Ta4Mn2Pb3N3,0.51194125
W4Zr2Sb3N3,0.5146065
W4Y2Pb3N3,0.5154157
W4V2Sb3N3,0.5156867
W4Ti2Sb3N3,0.5157397
Sc4V2Fe3N3,0.5181232
Y4Mn2As3C3,0.5181318
Ta4W2S3N3,0.5183382
Lu4Ta2Fe3N3,0.51857305
Ta4Mn2Bi3N3,0.52050024
W4Mn2Si3N3,0.52160054
Lu4Mn2P3C3,0.5218092
Hf4W2Pb3N3,0.5235978
W4W2S3N3,0.5241102
Y4Cr2P3C3,0.52600104
Hf4W2Co3N3,0.5276805
Zr4Mn2Fe3N3,0.5296389
V4W2Pb3N3,0.5326424
Lu4Ti2Fe3N3,0.53571516
Sc4Mn2Co3N3,0.53589946
W4Cr2Tl3N3,0.53609455
Cr4W2Bi3N3,0.53625923
W4Sc2Tl3N3,0.5363272
Mo4W2Bi3N3,0.5373827
Hf4W2Fe3N3,0.5377242
Nb4W2Bi3N3,0.5383315
Lu4Cr2P3C3,0.54170275
Zr4W2Co3N3,0.54208136
W4Nb2Sb3N3,0.54229176
W4Mn2Bi3N3,0.5448469
Ta4Mo2Pb3N3,0.54935795
W4Nb2S3N3,0.54987204
Lu4Mn2Fe3N3,0.5509698
W4Mn2Tl3N3,0.5518102
Nb4W2Pb3N3,0.55335456
W4Lu2Tl3N3,0.5548523
Sc4Mo2Co3N3,0.5560517
Sc4W2Cu3N3,0.55667484
Lu4Cr2Fe3N3,0.5585248
Ta4Mo2Bi3N3,0.5585693
Ta4Cr2Bi3N3,0.55876166
W4Lu2S3N3,0.56040114
W4Sc2Bi3N3,0.5605437
Lu4V2Co3N3,0.5609735
V4W2Bi3N3,0.5617105
W4Zr2S3N3,0.5618424
Lu4Cr2Co3N3,0.5621443
W4Mo2Tl3N3,0.56504905
W4Cr2Bi3N3,0.5662877
W4Hf2Sb3N3,0.567781
Mo4W2Al3N3,0.5691187
Lu4Ta2Co3N3,0.56932825
W4Mn2Al3N3,0.5705809
Zr4Mo2Fe3N3,0.5756743
W4Ta2Sb3N3,0.58056617
W4Cr2Al3N3,0.58060884
W4Mo2Al3N3,0.58231384
W4Hf2S3N3,0.5823412
W4Zr2Tl3N3,0.5897156
Sc4W2Ni3N3,0.5899295
W4Lu2Bi3N3,0.591195
W4Ti2Tl3N3,0.59427345
W4Sc2Pb3N3,0.59515584
W4Cr2Pb3N3,0.5971773
W4Mn2Pb3N3,0.5974242
W4V2Tl3N3,0.5975997
Y4Mn2P3C3,0.597914
Hf4W2Bi3N3,0.59938824
W4Hf2Tl3N3,0.60190344
W4Nb2Bi3N3,0.6058132
W4Mo2Pb3N3,0.60848445
W4Ta2Tl3N3,0.60915214
W4W2Tl3N3,0.61425173
W4Ti2Bi3N3,0.6145169
W4Ta2S3N3,0.615104
W4Mo2Bi3N3,0.6206669
W4Nb2Tl3N3,0.62200207
W4Lu2Pb3N3,0.6222468
W4W2Al3N3,0.62700856
W4W2Pb3N3,0.6283942
Zr4W2Fe3N3,0.629855
W4V2Bi3N3,0.632526
Lu4V2Fe3N3,0.6362197
Ta4W2Pb3N3,0.6416545
W4Zr2Pb3N3,0.64338076
W4Zr2Bi3N3,0.6488848
W4W2Bi3N3,0.6503552
Sc4W2Fe3N3,0.6506593
W4Hf2Pb3N3,0.6578026
Lu4Mo2Fe3N3,0.65785533
W4V2Pb3N3,0.6581097
W4Ti2Pb3N3,0.661989
W4Nb2Pb3N3,0.66596335
W4Ta2Pb3N3,0.66890377
W4Hf2Bi3N3,0.6903619
Lu4W2Fe3N3,0.7018533
Lu4W2Co3N3,0.7139456
Lu4Mo2Co3N3,0.71684027
Sc4W2Co3N3,0.7171375
Ta4W2Bi3N3,0.71906114
W4Ta2Bi3N3,0.73376983