formula,Ehull
Cr4Y2Sb3C3,0.27239895
W4Y2Ni3N3,0.2724043
Sc4V2Ni3N3,0.27246532
Ti4Cr2Ni3N3,0.27257505
Y4Sc2Bi3N3,0.27261743
Lu4Mo2Tl3N3,0.2726536
Mo4Mo2Fe3C3,0.2728318
Mn4Ti2In3N3,0.27285296
Cr4W2In3N3,0.273023
Y4Mo2Zn3N3,0.2730359
W4Y2Zn3N3,0.27304557
Ta4V2Ni3N3,0.2731312
Lu4Sc2As3N3,0.2731663
Ta4W2Sb3C3,0.27318448
Nb4Ti2Ni3N3,0.273201
Lu4Mn2S3C3,0.27335417
Mo4W2Ge3N3,0.2733772
Lu4W2Fe3C3,0.27347478
Mn4Nb2P3N3,0.27355987
Lu4Cr2In3N3,0.27366322
Cr4Zr2Si3N3,0.27370545
Mn4Hf2Tl3C3,0.27373722
Sc4Mn2Al3N3,0.27405053
V4W2Si3N3,0.27408287
Zr4Mn2P3N3,0.27420115
Sc4Mo2Pb3N3,0.2742034
Mn4Lu2Sn3N3,0.27429736
Cr4Hf2Bi3C3,0.27437374
V4Mo2Pb3C3,0.27445227
Zr4Y2Bi3N3,0.2745193
Hf4Mn2P3N3,0.27462703
Mn4Ta2Tl3C3,0.274889
Mo4V2Ni3N3,0.27507418
W4Mn2Sn3C3,0.27508122
W4Ti2Sb3C3,0.27514204
Cr4Ta2P3N3,0.2751424
Lu4V2Fe3C3,0.2751721
Ta4Hf2S3N3,0.2751898
W4Hf2Sb3C3,0.27525136
Lu4W2Ge3N3,0.27529958
Cr4V2Sb3N3,0.27531004
Sc4Y2As3N3,0.27532873
Ta4Ta2As3N3,0.27536923
Ta4Ta2Fe3C3,0.275474
Zr4Cr2Tl3N3,0.27570716
Zr4Zr2Fe3C3,0.27573657
Lu4Y2P3N3,0.2759147
Ta4Ta2Sn3N3,0.27592131
Y4Zr2Fe3N3,0.27593178
Nb4Mo2P3N3,0.27594453
Mn4W2S3N3,0.2759519
W4Mo2Si3C3,0.27599964
Mo4Hf2Bi3C3,0.27600905
Nb4Ta2S3N3,0.27603835
Mn4Sc2Cd3N3,0.2762396
Ta4Ta2P3N3,0.27643877
Hf4Nb2Co3N3,0.2765144
Zr4Ta2Bi3N3,0.27668095
Lu4Zr2Co3C3,0.2769774
Mn4Mn2Si3N3,0.2771842
Ta4V2Fe3C3,0.2773126
V4Y2Pb3N3,0.27732682
V4Mo2Fe3N3,0.27733764
Hf4Cr2S3N3,0.27740383
Zr4W2Co3C3,0.27745718
Mn4Ta2S3N3,0.27749136
Cr4Y2Bi3N3,0.27764484
Nb4Cr2Cu3N3,0.27766636
Mn4Nb2Si3N3,0.27774075
Lu4V2Bi3N3,0.27784935
Cr4Mn2Si3N3,0.27793255
Mn4V2Tl3C3,0.27795085
Mn4Nb2Sb3N3,0.27802834
Mo4Nb2Pb3C3,0.27802876
Mo4Zr2Sb3N3,0.27803087
Mo4V2Co3N3,0.2780359
Mo4Y2Al3N3,0.2780848
Cr4Nb2Tl3C3,0.2782201
Mo4Lu2Sb3N3,0.27830863
Nb4Mn2Si3N3,0.27849206
Cr4Zr2Sb3N3,0.27869958
Sc4Ta2Co3C3,0.27871984
Mn4Ti2Cd3N3,0.27875996
V4Cr2Pb3C3,0.27892432
Cr4Lu2Sb3N3,0.27904585
Sc4W2Zn3N3,0.27906343
Sc4Cr2Pb3N3,0.27916893
Y4V2S3N3,0.27918708
Mo4Y2Co3N3,0.27929965
Cr4Nb2Sb3N3,0.2792997
Lu4V2Co3C3,0.2793125
Mn4Y2Sb3C3,0.27933997
Nb4Mn2Bi3C3,0.27945
Lu4Y2Ni3N3,0.28017503
Zr4Sc2Fe3C3,0.28020215
Lu4Nb2Cu3C3,0.28021958
V4Mn2Sb3N3,0.2802238
Ti4Mn2Ni3N3,0.28030363
Zr4Mn2Sb3N3,0.28031224
W4Lu2P3C3,0.2803189
Mo4V2Pb3C3,0.28036594
Mo4Y2Fe3N3,0.2805714
Y4Cr2Ga3N3,0.28071424
Ta4Zr2Sb3N3,0.28075284
Lu4Mn2Ge3N3,0.28076422
V4Mo2S3N3,0.28089535
Mo4Lu2Fe3N3,0.28093714
V4Y2As3N3,0.2810472
Lu4Mn2Cd3N3,0.28105536
Hf4Sc2Fe3C3,0.28110698
W4Mn2Ga3N3,0.2811119
Mo4Y2S3N3,0.28128672
Y4Hf2Sb3N3,0.28149754
Lu4Zr2Ni3C3,0.28152072
Y4Hf2As3N3,0.2816017
Ti4Mn2Tl3N3,0.2817429
Mo4Ta2Cd3N3,0.28176564
Ti4Mo2Pb3N3,0.28182006
Zr4Mo2Tl3N3,0.28206536
Ti4Mo2Fe3N3,0.2820854
Zr4Ti2Co3C3,0.28223673
Hf4Mn2Al3N3,0.28226584
Mo4W2Sb3C3,0.28248966
Lu4V2Sb3N3,0.2826427
V4W2Cd3N3,0.28281185
Y4Zr2Bi3N3,0.28282323
Lu4Ta2Au3C3,0.28283796
Mn4Mo2Tl3N3,0.2828846
Mo4Sc2P3N3,0.28298324
Lu4V2As3C3,0.28298756
Zr4Mn2Al3N3,0.28319675
Ta4V2S3N3,0.28329876
Sc4Mn2Bi3N3,0.28340223
Lu4Mn2Zn3N3,0.28348652
W4Mo2Fe3C3,0.28362387
W4Ta2Co3N3,0.283664
Ta4Ti2Co3N3,0.28369665
Ta4Cr2As3N3,0.28382897
Y4Mn2Cu3N3,0.2838475
Ta4Y2As3C3,0.28385028
Cr4Hf2Sb3N3,0.2839956
Zr4Cr2Fe3C3,0.28401446
W4V2Fe3C3,0.2840495
Lu4Mn2Tl3N3,0.28406173
Mn4V2Sb3N3,0.28409258
Mo4V2Cd3N3,0.28416222
Nb4V2Cu3N3,0.28417227
Lu4Y2Co3N3,0.28421414
Zr4Mn2Pb3N3,0.28434825
Zr4Nb2Fe3C3,0.28441197
Ta4Cr2Sn3N3,0.28441572
V4Y2Sb3N3,0.28447422
W4Mn2Ni3N3,0.28451648
W4Ta2Fe3N3,0.28459078
Mo4Lu2S3N3,0.28466013
Lu4Cr2Zn3N3,0.28480092
Lu4W2Zn3N3,0.2848154
Ta4Cr2Si3N3,0.2848756
Cr4Y2Sb3N3,0.28513563
Mo4Cr2Cu3N3,0.28521937
V4W2Al3N3,0.28523105
Ta4Cr2P3N3,0.28530812
Ta4Ti2Fe3N3,0.28540382
Sc4Mn2P3C3,0.28543273
Sc4Ti2As3N3,0.28545153
Nb4Mo2Bi3C3,0.28545365
Y4Sc2Sb3N3,0.28547302
Mo4W2In3N3,0.2854779
Mo4Ta2As3N3,0.28555882
V4W2Tl3C3,0.2856981
Ta4Cr2Co3N3,0.2857
W4Y2Cu3N3,0.2857544
W4V2Ni3N3,0.2858197
Cr4Y2S3N3,0.2858408
Y4V2Bi3C3,0.28606892
Ti4Y2As3C3,0.28616732
Mn4Sc2Si3N3,0.28625056
Mo4Hf2P3N3,0.28631154
Lu4V2P3N3,0.28642124
Hf4Mo2Sb3N3,0.28651708
Nb4Mo2Sb3N3,0.28655776
Y4Y2Co3N3,0.2865791
Mo4Y2Sb3N3,0.28686604
Y4W2Sn3N3,0.2868837
Ta4Mn2In3N3,0.2870209
Sc4Lu2Fe3N3,0.28715503
Y4Mn2Bi3N3,0.28716686
Lu4Cr2Cd3N3,0.2872781
Hf4Y2As3C3,0.2873044
Nb4Cr2Fe3N3,0.28748506
Mn4Zr2P3N3,0.28765377
Sc4W2Sn3N3,0.28766972
Zr4Mo2Cu3N3,0.28770587
Ti4Mo2Cu3N3,0.28783613
Y4W2Au3N3,0.28789628
Hf4Cr2Co3C3,0.28795022
Mo4Lu2Co3N3,0.28801256
Cr4Ti2Sb3N3,0.28809592
Ti4W2Co3N3,0.2881444
Y4W2As3N3,0.28817305
W4W2As3C3,0.28824988
Cr4Mo2Tl3C3,0.28826585
Mn4Mn2P3N3,0.28828102
Mo4Lu2Al3N3,0.2882928
Y4Cr2Sn3N3,0.2883109
Ta4Nb2P3N3,0.2884413
Mn4Cr2Pb3C3,0.2884478
Cr4Cr2Tl3C3,0.28850695
Y4Hf2Co3C3,0.28853336
Ta4V2Cu3N3,0.28855237
W4Ti2Ga3N3,0.28865838
Mn4Ta2P3N3,0.2887362
Lu4Mn2Sb3C3,0.28878024
W4W2Si3C3,0.2888615
Hf4Cr2Sb3N3,0.28897834
Hf4Mo2Co3C3,0.28910026
Ti4Cr2Co3N3,0.28932917
Cr4W2Sb3C3,0.28934804
Y4Y2Ni3N3,0.2894107
Nb4Mo2Co3N3,0.28956097
Zr4Mo2Si3N3,0.2896034
Cr4Hf2S3N3,0.28975132
Ti4Cr2Ni3C3,0.28979293
Zr4Ti2Ni3C3,0.28980163
Ta4Mn2Cd3N3,0.2898501
Nb4V2Tl3N3,0.2899391
Hf4Mo2S3N3,0.28997502
Sc4Y2P3N3,0.29021674
Y4Mo2As3N3,0.29022214
Sc4Ti2Fe3C3,0.29029697
V4Y2S3N3,0.29031968
Nb4Mn2Co3N3,0.2904554
W4V2Zn3N3,0.2904772
Ti4V2Fe3C3,0.29056734
Cr4Lu2P3N3,0.2906071
Lu4Cr2P3N3,0.2909444
W4Mn2Au3N3,0.29119754
Mo4Ti2Sb3N3,0.29127946
W4Cr2Zn3N3,0.2912833
Nb4Ta2Sb3N3,0.29139417
Cr4Y2As3C3,0.2913954
W4Nb2Ni3N3,0.2915321
Cr4W2P3N3,0.2916376
Y4Mo2Pb3N3,0.29166782
V4Sc2Bi3N3,0.29182035
W4Zr2Ga3N3,0.29183426
W4Zr2Fe3N3,0.29194447
Ti4W2Ni3N3,0.29195073
Y4Cr2Zn3N3,0.2920208
Y4Ti2P3N3,0.29208794
Nb4Mn2Al3N3,0.2921569
Y4Cr2In3N3,0.29221243
Y4Ti2Bi3N3,0.29222262
Zr4Cr2Pb3N3,0.29225382
Y4Mo2P3N3,0.29228377
W4V2Co3N3,0.29241163
Y4Zr2Ni3N3,0.29244182
Zr4W2P3N3,0.29260367
Cr4Mn2Tl3N3,0.29263282
Hf4Y2Bi3N3,0.29282367
Cr4W2Cd3N3,0.2928422
W4Mn2Fe3C3,0.29284596
Ti4Y2P3C3,0.2929536
Y4Mn2Pb3N3,0.29303586
Zr4Nb2Co3N3,0.2931124
Ti4Y2Bi3N3,0.2933459
Y4Cr2Ge3N3,0.29334703
Ta4Zr2S3N3,0.29335245
Mo4W2Cd3N3,0.2935685
Y4Nb2Bi3N3,0.29357147
Hf4Hf2Fe3C3,0.293573
Lu4Lu2As3N3,0.29357854
Hf4Cr2Ni3C3,0.29359984
Cr4Sc2Sb3N3,0.2936095
Y4Ti2Fe3C3,0.29363424
Y4Sc2P3C3,0.29371813
Ta4Mn2Fe3C3,0.29382893
Mn4Mn2Tl3N3,0.29397076
Sc4W2Cd3N3,0.29409423
Y4Ti2Sb3C3,0.29422954
Sc4Sc2Fe3N3,0.29460528
Mn4Y2Bi3N3,0.29473233
Zr4W2Si3N3,0.29480383
W4Y2Fe3N3,0.29482576
Zr4Mn2Tl3N3,0.2948888
Mo4Cr2Pb3C3,0.29500577
Cr4Ta2Sb3N3,0.29512137
V4V2Bi3N3,0.2951474
Lu4Mo2Co3C3,0.29521117
W4Ta2Ni3N3,0.29521248
W4Hf2Ga3N3,0.2952298
W4Zr2Zn3N3,0.29526773
W4Mo2Zn3N3,0.2953633
Lu4Ta2Co3C3,0.29544118
Ti4Cr2Co3C3,0.29546282
Sc4Nb2Co3C3,0.29565284
Nb4Mn2Pb3C3,0.29573894
Zr4Ti2Fe3C3,0.29575
W4Sc2As3N3,0.2959124
Ta4Mo2Ni3C3,0.29595378
Mn4Hf2Al3N3,0.29603356
Y4W2Bi3C3,0.29618078
W4Zr2Co3N3,0.29623148
Mo4Hf2Sb3N3,0.29628342
Lu4W2Al3N3,0.29633045
Hf4Mn2Si3C3,0.29635346
Ti4Y2As3N3,0.29636613
W4Mo2Cu3N3,0.2966157
Cr4Zr2Pb3C3,0.29677767
W4Hf2Au3N3,0.29681617
Nb4Ti2Co3N3,0.2968507
Lu4Lu2Fe3C3,0.29686314
Lu4Sc2Fe3C3,0.29696542
Mn4Zr2Pb3C3,0.29700822
Y4Ta2P3C3,0.29713205
Lu4Mo2Si3N3,0.29722574
Ta4Lu2Bi3C3,0.29723382
Zr4Ta2Co3N3,0.29724488
Zr4Ta2Fe3C3,0.29729035
Cr4Hf2Tl3C3,0.2973684
W4V2Ga3N3,0.2975146
Nb4Hf2Bi3N3,0.29755652
W4Nb2Sb3C3,0.2975792
Y4Cr2Tl3N3,0.2976035
Ta4Zr2Tl3N3,0.29765004
Nb4W2Pb3C3,0.29798928
Mo4V2Sb3N3,0.29805163
Ta4Y2P3N3,0.29808778
Ta4Hf2Sb3N3,0.29826513
Y4Sc2P3N3,0.29830274
W4Cr2Ga3N3,0.29831943
Ta4Ti2Tl3N3,0.2983441
V4W2P3N3,0.2983682
W4Y2Pb3C3,0.2983789
Mn4Y2Sb3N3,0.29841214
Mo4Zr2S3N3,0.29846817
Mo4Cr2P3N3,0.29847804
Mo4Mn2Tl3N3,0.29856026
Y4Zr2Co3C3,0.2985947
Y4Ti2Co3C3,0.29867643
Lu4Mo2Sb3N3,0.29869354
Mo4Ti2S3N3,0.29880998
Y4W2Al3N3,0.29897544
Mo4Y2Pb3N3,0.29900897
Zr4W2Sn3N3,0.2990765
Lu4V2As3N3,0.29911268
Mo4Zr2P3N3,0.29918152
Lu4Cr2As3N3,0.29925475
Sc4Ti2Ni3N3,0.299649
W4Zr2Ni3N3,0.2996988
W4W2P3C3,0.29970142
Ta4Mo2Au3N3,0.29979804
W4V2Fe3N3,0.29992458
Sc4Zr2Fe3C3,0.3001119
Ta4W2Au3N3,0.30027342
Y4Lu2Fe3N3,0.30043897
Mn4Ti2Pb3C3,0.3004522
Mo4Ta2Sn3N3,0.30059576
Y4Zr2As3C3,0.30070207
W4Hf2Ni3N3,0.3009764
Zr4Nb2Co3C3,0.3010549
Lu4Cr2Tl3N3,0.30122465
Ta4Mo2Co3C3,0.30126584
Hf4Ti2Fe3C3,0.3012791
Mn4Y2As3C3,0.30130816
W4Sc2Au3N3,0.30139762
Cr4Mo2S3N3,0.30144408
Nb4Mo2Ni3N3,0.30156475
Nb4Ta2Fe3C3,0.30157158
Cr4Cr2Pb3C3,0.3017245
Mo4Mo2Si3N3,0.30185536
Lu4Nb2Co3C3,0.30199948
Mn4Nb2Pb3C3,0.30208805
Mn4Mo2Bi3C3,0.30217215
W4Mo2P3C3,0.30230305
W4Hf2Co3N3,0.30248275
Ta4Hf2Tl3N3,0.30251595
Mo4W2S3C3,0.30255318
Ti4Mn2Ni3C3,0.30256993
Mn4Y2Si3N3,0.30259275
Mn4Zr2Sb3N3,0.30273676
Ta4Cr2Tl3C3,0.3029249
Nb4Cr2Bi3C3,0.30297473
Lu4Y2As3N3,0.30298576
Ti4V2Fe3N3,0.303004
Ti4Y2P3N3,0.3030329
Nb4W2As3N3,0.30310965
Y4Mn2Sb3N3,0.30318293
Lu4Mn2Pb3N3,0.30331847
Y4Zr2As3N3,0.30335292
W4Zr2Au3N3,0.30335623
Ti4Mn2Fe3C3,0.30350295
Y4Lu2As3N3,0.30383554
W4Nb2Ga3N3,0.30392256
Nb4Ti2Fe3N3,0.30397493
Nb4V2Fe3C3,0.30408072
Cr4V2Tl3C3,0.304144
Zr4Mo2Fe3C3,0.3042061
Mo4Nb2Sb3N3,0.3043811
Mo4Sc2Ni3N3,0.3044575
Nb4Mn2Fe3C3,0.30455196
Mo4Y2P3C3,0.30471343
W4W2Cu3N3,0.30485868
Hf4Ti2Ni3C3,0.3049287
Ta4Mn2P3N3,0.30497348
Mn4Cr2Si3N3,0.30501568
V4Lu2P3C3,0.30508718
Y4Cr2S3N3,0.30513996
Zr4Mn2Ni3C3,0.30516025
W4Ti2Au3N3,0.30523583
Lu4V2Ni3N3,0.3052888
Ta4Mn2Au3N3,0.30538076
Mo4W2Fe3C3,0.3054237
V4Y2P3N3,0.30567947
Mn4Ta2Si3N3,0.30572376
Ta4W2Co3C3,0.3059803
Cr4Ta2Al3N3,0.30610102
Lu4Y2P3C3,0.30620316
Hf4W2Si3N3,0.3062346
W4Hf2Fe3N3,0.3063286
Ta4Mo2Co3N3,0.3063303
Zr4Ti2Co3N3,0.3063644
Y4Ta2As3C3,0.30642655
Ti4Mn2Bi3N3,0.30655137
Sc4Ta2Fe3C3,0.30675197
W4V2Sb3C3,0.30676544
Y4Zr2Fe3C3,0.3067953
Y4W2In3N3,0.30694225
Sc4Nb2Fe3C3,0.30694616
V4Mo2Bi3C3,0.30727872
Cr4W2Sn3N3,0.3073809
W4Mn2Ge3N3,0.3074238
Sc4Zr2Fe3N3,0.3074837
Ta4Mo2Zn3N3,0.30750194
Cr4Lu2S3N3,0.30764347
Zr4Mn2Si3N3,0.30771077
Lu4Mo2Au3N3,0.30772415
Ta4Sc2Pb3N3,0.30776715
Sc4Hf2Fe3C3,0.3078033
Nb4Mo2S3N3,0.30782983
Nb4W2In3N3,0.3083631
Hf4Mo2Cu3N3,0.30898458
Mn4V2Si3N3,0.3090191
Lu4Mn2Sb3N3,0.30918685
V4Zr2Bi3N3,0.30922812
Ta4Mn2Al3N3,0.3096765
Lu4Hf2Cu3C3,0.3099472
Sc4W2Si3N3,0.30997267
Y4Ti2As3C3,0.31000668
W4Y2Ge3N3,0.3100938
Mo4Ti2P3N3,0.31021997
Sc4Cr2Cu3N3,0.31022775
W4Cr2Fe3C3,0.31028968
Y4Cr2Bi3C3,0.31032673
Cr4Lu2Tl3N3,0.31038475
Zr4Mo2Pb3N3,0.3104259
Lu4Mn2Cu3N3,0.3104385
Hf4Mo2Si3N3,0.3104686
Y4Hf2As3C3,0.31047413
Ta4Mo2Fe3N3,0.31050318
Y4W2As3C3,0.31054118
V4Nb2Pb3N3,0.310608
Ta4Mn2Fe3N3,0.31061855
Cr4Mo2Pb3C3,0.31070882
Hf4Ti2Co3C3,0.3109217
W4Ta2Ga3N3,0.31098178
Ta4Mn2As3N3,0.31098697
W4Sc2Zn3N3,0.31112438
Hf4Ta2Bi3N3,0.31118646
Y4Cr2Cd3N3,0.31119007
W4Hf2S3C3,0.3111979
Lu4W2Au3N3,0.31121433
Lu4Ti2As3N3,0.3112629
Nb4V2Pb3N3,0.31137642
Y4W2Co3C3,0.3114278
Y4Mo2Si3N3,0.31144476
Nb4Lu2Bi3N3,0.31152844
Mo4Lu2Tl3N3,0.31162113
Cr4Ta2Tl3C3,0.3116422
W4Zr2Pb3C3,0.31167644
Ti4Mo2Fe3C3,0.31181246
Y4Nb2Fe3N3,0.31191483
Sc4Cr2Bi3N3,0.3119844
Ta4Mo2Ge3N3,0.3120953
Nb4W2P3N3,0.31213745
Mn4Mo2Pb3C3,0.31217596
Lu4Mn2Cu3C3,0.31218514
Mn4Mo2Si3N3,0.31222886
Lu4Ta2Ni3N3,0.31233194
Nb4Nb2Pb3N3,0.31250212
Lu4W2Sn3N3,0.3125774
Y4Mn2Bi3C3,0.31257966
Ta4Mn2Co3N3,0.31292984
Mn4Hf2Bi3C3,0.31300396
Mn4Ti2Si3N3,0.31304258
Mn4V2Pb3C3,0.31323493
Y4Hf2P3C3,0.31325385
Mo4Mn2S3N3,0.31332293
Lu4Ta2Bi3N3,0.31352666
Ta4W2Zn3N3,0.31354576
Mo4W2Sn3N3,0.3135603
Lu4W2In3N3,0.31361276
Y4Mo2Sb3C3,0.3138967
Cr4Ti2Bi3C3,0.31397822
Mo4Cr2S3N3,0.31414968
Cr4Ti2Pb3C3,0.31420118
Mn4Hf2Sb3N3,0.31433922
Mo4Mn2P3N3,0.31444272
Nb4Ta2Tl3N3,0.31445783
Ta4Lu2Pb3N3,0.3145006
Cr4Mn2Pb3C3,0.31476566
Mn4Cr2Bi3C3,0.31480443
Nb4Y2S3C3,0.31502306
Nb4Mo2Fe3N3,0.3151272
Cr4Mo2Si3N3,0.31522626
W4Mo2Ge3N3,0.3153012
W4Sc2Ge3N3,0.31532127
Sc4W2S3N3,0.315574
Mn4Mo2Pb3N3,0.31570774
Ta4Mo2Si3N3,0.3159999
W4Ti2Co3N3,0.3160179
Lu4Mo2Pb3N3,0.3160464
Ta4Y2As3N3,0.31609023
Mn4Zr2Si3N3,0.31614375
Mo4Ti2Cu3N3,0.31699827
Mo4Ta2Pb3C3,0.3170231
Nb4Cr2Tl3N3,0.3170782
Mn4Ta2Sb3N3,0.31711963
Y4Ti2Fe3N3,0.31721306
Lu4Mn2Bi3N3,0.31735805
Lu4Lu2Ni3N3,0.3174355
Cr4Nb2Pb3C3,0.3174597
Ta4Y2S3N3,0.31746757
Ta4Y2S3C3,0.31774595
Zr4W2In3N3,0.3178506
Lu4Mn2Au3N3,0.31798705
Hf4Mn2Sb3N3,0.31802496
Mo4Cr2Tl3N3,0.31803966
Y4Ti2Sb3N3,0.3180439
Ta4Mn2Sn3N3,0.31806356
Ta4Lu2Sb3N3,0.31807423
Ta4Mo2In3N3,0.31819496
Y4Hf2Fe3N3,0.31838575
Lu4V2Cu3C3,0.31848168
Y4Cr2Pb3N3,0.31849402
Y4Nb2As3C3,0.3186165
Hf4W2Sn3N3,0.3186787
Hf4Ta2Co3N3,0.3187825
Y4Cr2Sb3N3,0.31895125
W4Cr2Au3N3,0.3190803
V4Ta2Tl3N3,0.3193646
V4Y2Sb3C3,0.31956303
Mn4Hf2Pb3C3,0.3197028
Ta4Y2Sb3C3,0.3198822
Ta4Cr2Cu3N3,0.32007727
Y4Hf2Bi3N3,0.32011527
Sc4Ti2Co3C3,0.3201496
Lu4Ta2Cu3C3,0.3202323
Hf4W2In3N3,0.32027084
V4W2Sn3N3,0.3202726
Y4W2Cd3N3,0.32037318
Nb4V2Co3N3,0.32049304
Mo4Sc2Fe3N3,0.32051554
Ti4Mn2Co3N3,0.32063916
W4Mn2Co3C3,0.32064226
Cr4Ta2S3N3,0.3207263
Mo4Mn2Pb3C3,0.32077697
W4Sc2Bi3C3,0.3209764
V4Mn2Bi3C3,0.32102063
Sc4Mn2As3C3,0.3210539
Mo4V2Bi3C3,0.32110533
Zr4V2Co3N3,0.3211426
Y4Lu2Co3N3,0.32123512
W4Hf2Zn3N3,0.32139942
Mo4Y2Si3N3,0.32171524
Lu4Ti2Cu3C3,0.32173344
Mo4Nb2P3N3,0.32173854
Hf4Ti2Fe3N3,0.32183763
W4Mn2As3N3,0.32193112
Cr4W2Pb3C3,0.3220043
Zr4W2Cd3N3,0.3220617
Nb4W2Al3N3,0.32221073
Mn4Ta2Pb3C3,0.3222644
Nb4W2Ni3N3,0.32234332
Nb4W2Fe3N3,0.32235906
Hf4Mn2Ni3N3,0.32238257
W4Sc2Fe3N3,0.32255453
Y4Cr2Sb3C3,0.32274464
Mn4Mn2Bi3N3,0.32279283
Cr4Cr2Tl3N3,0.32279834
Mn4Ti2Sb3N3,0.3228638
Mo4Mn2Co3C3,0.32286927
W4W2Ga3N3,0.32293233
Mo4Lu2P3N3,0.32309625
Y4Ti2Ni3C3,0.3231536
Y4W2P3N3,0.3231702
W4W2Zn3N3,0.3231768
Y4Cr2Si3N3,0.32341176
V4Y2Bi3C3,0.32350907
Y4Cr2Al3N3,0.3237097
Ti4Cr2Bi3N3,0.32378545
W4Lu2Zn3N3,0.32391417
Mo4Sc2Co3N3,0.3239575
Mn4Sc2Sb3N3,0.324023
Mn4Hf2Si3N3,0.32408705
Y4Ta2Co3N3,0.32418823
Lu4Ti2Au3C3,0.3245937
W4V2S3C3,0.32468715
Hf4Cr2Tl3N3,0.32476425
Lu4Ti2Fe3C3,0.3249657
Mn4Lu2Si3N3,0.3250281
Ta4Ta2Tl3N3,0.3250706
Sc4Mo2Bi3N3,0.3256473
Y4Mo2Bi3N3,0.3259974
Mo4Sc2Tl3N3,0.32602394
Y4Sc2As3N3,0.32615152
Mn4Lu2Sb3N3,0.32628044
W4Cr2Sb3C3,0.32629052
Y4Zr2P3C3,0.32629162
Hf4Mn2Si3N3,0.32632738
Mn4Y2Al3N3,0.32639468
Zr4Ti2Fe3N3,0.3264295
Ta4W2Ni3C3,0.32649055
W4Y2Cd3N3,0.3264912
Ta4Ta2S3N3,0.32663414
W4Lu2As3N3,0.32691163
Cr4Y2P3C3,0.32691652
Ta4V2Co3N3,0.3269977
Ta4Nb2Tl3N3,0.3271872
Mo4Mn2Bi3C3,0.32722163
Y4Zr2Co3N3,0.3273597
Zr4Mn2Bi3N3,0.32737458
Mo4Hf2S3N3,0.32742566
Mo4W2As3N3,0.3274805
V4Y2As3C3,0.32748747
Lu4Cr2Pb3N3,0.32752037
Cr4Cr2Bi3C3,0.32772765
Ta4Mo2As3N3,0.3277622
Ti4Cr2Fe3N3,0.32785493
Ta4Mo2Sn3N3,0.3279737
Hf4Mn2Tl3N3,0.32801768
W4Ti2S3C3,0.32806283
Y4Mo2Au3N3,0.32815015
W4Y2As3N3,0.32820335
W4Sc2Ni3N3,0.32855597
Ta4Y2Pb3N3,0.3286582
Mn4Mn2Pb3C3,0.32873836
Ta4W2Ni3N3,0.32875508
Nb4Mo2Si3N3,0.3288396
W4Ti2Pb3C3,0.32927385
V4Lu2S3C3,0.32929078
Mo4Y2P3N3,0.32930043
Hf4Cr2Ni3N3,0.32936963
Nb4W2Cd3N3,0.32945505
Nb4Cr2Pb3N3,0.3294634
Cr4Sc2Tl3N3,0.32950646
Ti4Mn2Pb3N3,0.32952112
Hf4V2Co3N3,0.32958767
Y4Y2P3N3,0.32979783
Lu4Cr2Sb3N3,0.32994738
Sc4Mn2P3N3,0.32996234
Y4Y2P3C3,0.3300101
Nb4Y2Bi3N3,0.33010742
Mo4Mo2Pb3C3,0.3302253
Mn4Nb2Al3N3,0.33052734
Nb4W2Sn3N3,0.33053347
Ta4V2Sb3N3,0.33066812
Mn4Mn2Bi3C3,0.33086717
Y4W2Si3N3,0.33093932
Ta4Nb2Sb3N3,0.3309544
V4Mn2Tl3N3,0.33095586
Lu4Cr2Au3N3,0.33110967
Mo4Ti2Co3N3,0.33112514
Hf4V2Fe3C3,0.33120126
Hf4W2Cd3N3,0.3313819
Lu4Lu2Co3N3,0.3314369
Mn4Sc2P3N3,0.33147115
Lu4Sc2Ni3N3,0.33148432
Cr4Lu2S3C3,0.3315064
Lu4Cr2Al3N3,0.33152685
Ta4Mo2Pb3C3,0.3315488
Mn4Nb2Tl3N3,0.33169442
Y4Sc2Co3N3,0.33181223
Mn4V2Tl3N3,0.33203894
W4Cr2As3N3,0.33205533
Hf4Mo2Tl3N3,0.3322244
Ta4Cr2Ni3N3,0.33226258
Mo4Ta2P3N3,0.33231226
Mn4Nb2Bi3C3,0.33249965
V4V2Pb3N3,0.3326342
Nb4Mn2Ni3N3,0.33265507
Mn4Sc2Al3N3,0.33269316
V4Mn2Pb3C3,0.33277738
Ta4Ti2Pb3N3,0.33286467
Mo4Y2Bi3N3,0.332936
W4Mo2Au3N3,0.33306476
Mn4Y2Tl3N3,0.33306694
Sc4Ti2Co3N3,0.3331724
Lu4Nb2Ni3N3,0.33322507
Mn4W2Sb3N3,0.33325773
Y4Mn2Ni3C3,0.33328262
Sc4W2Sb3N3,0.33346117
Hf4Cr2Pb3N3,0.33360872
Y4W2Cu3N3,0.33371043
W4Zr2S3C3,0.3337891
Mn4Mn2Pb3N3,0.33394644
W4Y2Co3N3,0.33395082
Sc4Hf2Fe3N3,0.3339796
V4W2Pb3C3,0.33404154
Sc4Mn2Si3N3,0.3341485
Nb4W2Bi3C3,0.33429894
Mo4Mo2Tl3N3,0.33433723
Zr4Mn2Fe3C3,0.33434802
Y4Lu2Ni3N3,0.33439726
Y4W2P3C3,0.33463177
Mo4V2S3N3,0.33464497
W4Lu2Ni3N3,0.3346911
Ta4Zr2Pb3N3,0.33484167
Ta4W2Al3N3,0.33510798
Mo4Lu2S3C3,0.33522478
Mo4V2Cu3N3,0.33534908
Lu4W2Cd3N3,0.33535022
Cr4V2Pb3C3,0.3355374
Mo4Ti2Fe3N3,0.33567947
Mo4V2P3N3,0.3357906
Y4V2Sb3C3,0.33580926
Mn4V2Bi3C3,0.33592692
Ta4Mn2Ni3N3,0.33599576
Ta4Lu2S3N3,0.3361215
Mo4Hf2Al3N3,0.33619887
Nb4Mo2Fe3C3,0.3362085
Mn4Ti2Bi3C3,0.33625314
Lu4Mn2As3N3,0.3362835
Mn4W2Tl3C3,0.33641946
W4Ti2Zn3N3,0.33641958
Cr4Mn2Pb3N3,0.3364689
V4Cr2Bi3C3,0.3365028
Cr4Mn2Bi3C3,0.33651075
Y4V2Bi3N3,0.33686277
W4Cr2Ge3N3,0.33695233
Mo4W2Tl3C3,0.33706933
Mo4V2Fe3N3,0.3373212
Ta4Nb2S3N3,0.33737782
Hf4W2Cu3N3,0.33738184
Cr4Mo2Bi3C3,0.3374654
W4Mo2Cd3N3,0.3376252
V4Nb2Bi3N3,0.3379133
Cr4Nb2Bi3C3,0.33796155
Sc4Mn2Co3C3,0.33814484
Ta4W2Fe3N3,0.33848426
Sc4W2Tl3N3,0.3391137
Mo4Mn2Pb3N3,0.33926988
Mo4Nb2S3N3,0.33950865
Mn4Cr2Pb3N3,0.33955064
Ti4Mn2Co3C3,0.33966348
Lu4Cr2Si3N3,0.33977872
Hf4W2Fe3C3,0.33999074
Cr4Y2P3N3,0.34014612
Cr4W2S3N3,0.34024063
Hf4Mn2Fe3C3,0.3403663
Y4Cr2S3C3,0.34040874
Y4Cr2Bi3N3,0.34049502
Ti4W2S3N3,0.34052762
V4Hf2Bi3N3,0.3405529
Ta4Mn2Ge3N3,0.34084892
Nb4Mn2Fe3N3,0.341228
Nb4Mn2Tl3N3,0.34139207
Y4Mn2Al3N3,0.34145096
Y4Mo2Fe3N3,0.34146225
Lu4Sc2Fe3N3,0.3415561
Mo4Mn2Bi3N3,0.34272438
Y4Ta2Bi3N3,0.34299964
Ta4Mn2S3N3,0.34311637
Mo4Cr2Bi3C3,0.34342766
Ta4V2Tl3N3,0.3437932
Cr4Nb2Pb3N3,0.3438762
Ta4W2Fe3C3,0.34397277
Nb4W2Cu3N3,0.34421974
W4W2Ge3N3,0.34435102
V4Lu2Bi3N3,0.34439275
Ta4Cr2Sb3N3,0.34439954
Ti4W2Fe3N3,0.34442142
W4Sc2S3C3,0.3448215
Ti4Cr2Fe3C3,0.34488606
Ta4Cr2S3N3,0.34495068
Mn4Ti2Al3N3,0.34497556
Ta4Mn2Pb3C3,0.34498537
Hf4Mo2Pb3N3,0.34507576
Ti4Mn2Fe3N3,0.34511074
Hf4Nb2Fe3C3,0.34537387
W4Y2As3C3,0.3455095
Y4W2Tl3N3,0.34583682
Sc4Cr2Fe3C3,0.3463694
Hf4Ta2Fe3C3,0.3464497
Y4Lu2P3C3,0.3464644
Cr4V2Bi3C3,0.3466233
Ta4Mo2Ni3N3,0.34667304
Cr4Hf2Pb3C3,0.34684196
Ta4W2Co3N3,0.34715796
Y4Cr2Au3N3,0.34738106
Ta4W2Tl3C3,0.34739992
Ti4Mo2Bi3N3,0.3474536
W4Lu2Cu3N3,0.34798756
W4Mn2S3C3,0.34805518
W4Mn2Sb3C3,0.348072
W4Ti2As3N3,0.3481769
Mn4Y2P3C3,0.34856385
Lu4Lu2Fe3N3,0.34872657
Ta4Y2Sb3N3,0.3488027
Lu4Cr2Cu3N3,0.34919623
Y4W2S3N3,0.34924263
Zr4Mn2Si3C3,0.34946704
Mo4Ti2Ni3N3,0.34951025
W4Y2Sb3C3,0.34957996
Zr4Mn2Ni3N3,0.3497595
W4Lu2Bi3C3,0.34981143
Ta4Sc2Bi3N3,0.35000774
W4Mo2Sb3C3,0.35016567
W4Zr2As3N3,0.35019657
W4Nb2S3C3,0.35044485
Hf4Nb2Fe3N3,0.35045254
Hf4Mn2Pb3N3,0.35051998
Cr4Y2Pb3N3,0.3505781
Y4Y2As3N3,0.35066426
Lu4Zr2Fe3C3,0.3506988
Lu4V2P3C3,0.3507809
Cr4V2Tl3N3,0.35082224
Mn4W2P3N3,0.35089624
W4Lu2Fe3N3,0.35101312
Lu4Nb2Ni3C3,0.351123
Y4Nb2P3C3,0.35115743
W4Mn2Cd3N3,0.35143477
Y4Cr2Cu3N3,0.35151452
Zr4Cr2Bi3N3,0.35162982
Ta4Ta2Sb3N3,0.35170335
Mn4V2Al3N3,0.35246837
Ta4Cr2Pb3C3,0.35254455
W4W2Sb3C3,0.3526992
Cr4Mo2Tl3N3,0.3527516
Y4Mo2Cu3N3,0.35278606
Mo4W2Pb3C3,0.35299805
V4Cr2Tl3N3,0.3533379
Ta4Mo2P3N3,0.35347986
Sc4W2Fe3C3,0.35361043
W4Ti2Fe3N3,0.35369024
Sc4W2P3N3,0.3537744
Cr4Mn2Bi3N3,0.35382995
Ta4V2Fe3N3,0.35386264
Y4Cr2Ni3C3,0.35423556
Nb4Mo2Tl3N3,0.35440788
V4Y2Bi3N3,0.35443628
W4Ta2Sb3C3,0.354725
Mo4W2P3N3,0.35479853
Lu4W2S3N3,0.35483062
Lu4Ta2Ni3C3,0.35492155
Mo4Nb2Bi3C3,0.35504934
W4V2Ge3N3,0.35511333
W4Zr2Cu3N3,0.35538983
Ta4Mn2Si3N3,0.35542712
Y4Cr2Co3C3,0.35549095
Zr4W2Cu3N3,0.3555293
Nb4Nb2Bi3N3,0.3555495
Nb4Mn2Pb3N3,0.3555645
W4Mn2Sn3N3,0.35566786
Lu4Cr2Ni3C3,0.35572296
Lu4Hf2Ni3C3,0.35577
Y4Cr2Fe3C3,0.35613847
V4Mo2Tl3N3,0.35621092
W4Mn2In3N3,0.35643947
Mn4Lu2Al3N3,0.3565246
Mn4W2Pb3C3,0.35698265
Sc4Ta2Fe3N3,0.35699266
Lu4V2Au3C3,0.35744038
Hf4Cr2Fe3C3,0.35757753
W4W2Au3N3,0.3578639
W4Ta2S3C3,0.35787386
W4Cr2S3C3,0.35787424
Ta4Mo2Cd3N3,0.35788223
Mo4W2Sb3N3,0.35790354
Hf4Mn2Ni3C3,0.35796532
Cr4Zr2Tl3N3,0.3580501
V4Mo2Pb3N3,0.3580584
Ta4Y2Bi3C3,0.3584992
Lu4Zr2Ni3N3,0.3585922
W4Hf2Tl3C3,0.35906586
Cr4W2Tl3C3,0.35919315
Cr4Mo2Pb3N3,0.35937512
Y4Mn2Sb3C3,0.35973415
W4Nb2Cu3N3,0.35975406
Cr4Nb2Tl3N3,0.3597552
Nb4V2Bi3N3,0.3597931
Lu4Cr2As3C3,0.3600272
Nb4V2Fe3N3,0.3600584
Zr4Cr2Cu3C3,0.36008114
W4Sc2P3N3,0.36018512
Mo4Lu2Si3N3,0.3601958
Lu4W2Cu3N3,0.36046433
Mo4Zr2Tl3N3,0.36058375
Mo4Sc2Al3N3,0.36133218
Cr4Cr2Pb3N3,0.3616031
Mo4Zr2Si3N3,0.36170176
Y4W2Sb3N3,0.36170572
Cr4Ta2Pb3C3,0.36185774
Ta4Cr2Bi3C3,0.3622138
W4Sc2Cu3N3,0.3622272
Cr4Ti2Tl3N3,0.36240762
W4Hf2Ge3N3,0.3624584
Lu4Sc2Co3N3,0.3625009
Nb4Ta2Pb3N3,0.36252767
Mn4Zr2Tl3N3,0.3625289