formula,Ehull
Mn4Mn2Fe3N3,0.2147218
Mo4Sc2Sn3N3,0.21478967
Cr4Cr2S3N3,0.21493171
Lu4Mn2Si3C3,0.2149517
Mo4Cr2Fe3C3,0.2150023
Ti4Mn2Al3N3,0.21507435
Sc4Cr2As3C3,0.21508373
Mo4Zr2Pb3C3,0.21511143
Mo4Cr2Ni3N3,0.21521883
Nb4Cr2P3N3,0.21530089
Mo4V2Co3C3,0.21537654
Zr4Mn2Al3C3,0.21539152
Nb4Ta2Bi3C3,0.21541202
Zr4Ta2Co3C3,0.21542172
Ta4Hf2P3N3,0.21560767
Mn4Cr2Fe3C3,0.21563478
Ti4Mo2S3N3,0.21570678
Lu4Sc2Bi3N3,0.21578926
Mn4Sc2Cu3N3,0.21586353
Ta4Hf2Si3N3,0.21589118
Y4V2Pb3N3,0.2159204
Mn4Y2Pb3C3,0.21615179
Nb4W2Ga3N3,0.21618506
Mo4Mo2Cd3N3,0.21623108
Ta4Mo2Cu3C3,0.21639411
Mo4Ta2Ga3N3,0.2164029
W4W2Ni3N3,0.21641633
Nb4Ti2Cu3N3,0.21651642
Lu4Ta2P3C3,0.21665163
Mo4Y2Ni3N3,0.21675923
Lu4Hf2P3N3,0.21683237
Nb4Hf2Si3N3,0.21689121
Mn4Sc2Pb3C3,0.2169226
Zr4Nb2Bi3N3,0.21703179
Sc4Mn2In3N3,0.2173066
Mo4Mo2Sb3N3,0.21732536
V4Mn2Ni3N3,0.21736808
Mo4Ta2S3C3,0.21749024
Cr4Ti2Tl3C3,0.21764874
Lu4Mo2Ge3N3,0.21768841
Nb4Nb2Fe3C3,0.21783766
Hf4Mo2Cd3N3,0.21788451
W4V2In3C3,0.21790437
Nb4Nb2Co3N3,0.21803805
Ta4Ti2Si3N3,0.21804751
Mo4Lu2As3N3,0.21807459
Y4Hf2Au3N3,0.21807657
Cr4Nb2P3N3,0.21808703
Zr4Cr2Zn3N3,0.21813463
Nb4V2Bi3C3,0.21815541
Sc4Cr2In3N3,0.2181709
Zr4Mn2Sn3N3,0.21829978
Mo4Cr2Co3C3,0.2183072
Mo4Cr2S3C3,0.21831667
W4Y2Au3N3,0.21831858
Ta4Hf2As3N3,0.21832997
V4W2Ge3N3,0.21838067
Mn4Y2Ge3N3,0.21843418
Mn4Lu2As3C3,0.21846454
V4W2Fe3N3,0.21848181
Hf4V2Bi3N3,0.21850158
Mn4V2Sn3N3,0.21851088
Nb4Zr2Si3N3,0.21879719
Lu4Nb2Si3N3,0.21887422
Y4Mn2Ge3C3,0.21888496
Nb4Mo2In3N3,0.21900892
Nb4Cr2Cu3C3,0.21904492
Mo4Nb2Sn3N3,0.21909194
Sc4Ta2Cu3N3,0.2191627
Sc4W2Ga3N3,0.21918817
Hf4Lu2Bi3N3,0.21922731
Lu4W2As3C3,0.21922874
W4Ta2P3C3,0.2192316
Mo4Mo2P3C3,0.21925347
Lu4Sc2Ni3C3,0.21926063
Cr4Ti2Al3N3,0.21940881
Zr4Nb2Ni3N3,0.21941
Cr4W2Au3N3,0.21945705
Cr4Sc2Al3N3,0.21952055
Nb4Ti2Si3N3,0.21959212
Mo4Hf2Tl3C3,0.21967177
Mo4V2Ga3N3,0.21969114
V4Mo2Sn3N3,0.21970385
Ti4W2P3N3,0.21971773
Mn4Ta2S3C3,0.2198879
W4Hf2P3C3,0.21990213
Cr4W2Sn3C3,0.21994144
Ta4V2Cd3N3,0.21997035
Hf4Mn2Bi3C3,0.22001821
Ti4Mn2Pb3C3,0.22002865
V4W2Ni3N3,0.22008857
Lu4Cr2Cu3C3,0.22021884
Mo4Lu2Sn3N3,0.2203011
Zr4Lu2Fe3N3,0.22030629
Nb4Mn2Tl3C3,0.22045124
Nb4Cr2Al3N3,0.22046728
Hf4Mo2Sn3N3,0.22050862
W4Cr2Ni3C3,0.22058679
Lu4Lu2Sb3N3,0.22060783
Nb4W2Cu3C3,0.22066808
Mo4Zr2Sn3N3,0.2207179
Ti4Mn2P3N3,0.2208878
Mn4W2As3C3,0.22091192
Hf4Ta2Si3N3,0.22092952
W4Nb2In3C3,0.22099139
Nb4Y2Sb3N3,0.22129257
Ta4Sc2Co3N3,0.22134237
Nb4V2Sb3N3,0.22134246
Hf4Cr2In3N3,0.22140726
Sc4Nb2Cu3N3,0.22146496
Zr4W2Fe3C3,0.22148426
V4Nb2Sb3N3,0.22165728
W4Cr2In3C3,0.2216609
Hf4Cr2Sn3N3,0.22169441
Hf4Lu2As3C3,0.22175154
Ta4Ta2Co3C3,0.221782
Zr4Mo2Ge3N3,0.22187836
Mn4Nb2As3N3,0.22193381
Mo4Hf2Ge3N3,0.22198315
Lu4Lu2Si3N3,0.22210313
Mo4Nb2Au3N3,0.22216007
V4Sc2Pb3N3,0.22220801
Mn4Cr2Cu3C3,0.2222157
Ta4Nb2Fe3C3,0.22224477
Sc4Cr2Ge3N3,0.22232836
Lu4Zr2Sb3N3,0.22246698
Sc4Cr2Co3C3,0.22252698
Y4W2Fe3C3,0.22253576
Lu4Nb2P3C3,0.2225705
Lu4Y2Si3N3,0.22262192
Zr4Y2Sb3N3,0.22264914
Y4W2S3C3,0.22272526
Mn4Zr2Cd3N3,0.22275229
Sc4Sc2Co3C3,0.22278653
V4Ti2Pb3N3,0.2228326
Cr4Sc2Cd3N3,0.2229365
Hf4Cr2P3N3,0.22297381
Hf4Ta2Co3C3,0.22299646
Zr4Mo2Cd3N3,0.22300643
Sc4W2Ni3C3,0.2230812
Zr4Cr2Bi3C3,0.2231679
Zr4Cr2Al3N3,0.22318733
Lu4Zr2P3N3,0.22319181
Zr4Ta2Ni3C3,0.22319669
Mo4Ti2Pb3C3,0.22321755
Mo4Mn2Cu3N3,0.223263
W4Ta2Sn3C3,0.22327352
Mo4Y2Sb3C3,0.22328395
Lu4Hf2Cu3N3,0.22337976
Y4Nb2Cu3N3,0.22338285
Nb4Mn2Au3N3,0.2234107
Zr4Cr2Pb3C3,0.22343221
Lu4Y2Au3N3,0.2234362
Zr4Mn2As3N3,0.22347136
Lu4V2Sb3C3,0.22352485
Cr4W2Cu3N3,0.22365616
Zr4Lu2Fe3C3,0.22373901
Mo4Mo2Zn3N3,0.22375613
W4Mn2Co3N3,0.22394595
Mo4V2In3N3,0.22397761
Ta4Zr2Co3N3,0.22405243
Nb4V2Co3C3,0.224152
Nb4Mn2As3N3,0.22415851
Ta4Ti2Ni3N3,0.22433726
Hf4Sc2Cu3C3,0.22434767
Ta4Sc2P3N3,0.22439545
Mn4W2P3C3,0.22457789
Ta4Sc2As3N3,0.22463042
Y4Mo2Ge3N3,0.22468725
Cr4Lu2Pb3C3,0.22470352
Ti4Mo2Sb3N3,0.22472739
Mo4Y2As3N3,0.22474056
Mn4Ti2Cu3N3,0.2247718
Mn4Y2Bi3C3,0.2248706
Nb4Sc2Bi3N3,0.2250194
Hf4Nb2Bi3N3,0.22504798
Hf4Mn2In3N3,0.22507043
Sc4W2Ge3N3,0.22509669
V4Lu2P3N3,0.22514334
Zr4Mo2Zn3N3,0.2251959
Hf4Mo2Ni3C3,0.22526377
Hf4Mo2Al3N3,0.22526835
W4Ti2Ge3N3,0.22539696
Zr4Mo2Al3N3,0.22544518
Mn4Hf2Sb3C3,0.22545055
Mo4Cr2As3N3,0.22569503
V4W2S3C3,0.22577919
W4V2Cd3C3,0.22584505
Mo4W2Si3C3,0.22588949
Zr4Y2As3N3,0.22595711
Ta4Mo2Tl3C3,0.22596022
Zr4Y2Fe3C3,0.22612995
Mo4Ti2In3N3,0.22615336
Mn4Zr2In3N3,0.22618046
Lu4Sc2Sb3N3,0.22622687
Mn4Ta2P3C3,0.22625354
Hf4W2Ga3N3,0.22630984
Sc4Y2Fe3C3,0.22642034
Hf4Y2Fe3C3,0.22642465
Hf4Zr2Fe3N3,0.22649823
Nb4Lu2Fe3N3,0.22650133
Mn4Mo2Sb3N3,0.22651292
Mo4W2Co3N3,0.22651446
W4Nb2P3C3,0.22654493
Nb4Nb2Ni3N3,0.22668773
Hf4Mn2Cd3N3,0.22700803
Mn4Mn2Sb3N3,0.22707672
V4Mn2Cu3N3,0.2271078
Mo4W2Cu3C3,0.22711164
Mn4Y2S3N3,0.2272231
Ti4Y2Sb3C3,0.22723182
Mn4Cr2Co3C3,0.22732581
Y4Lu2Ni3C3,0.22734192
Mn4Lu2Sb3C3,0.22735403
Cr4Mo2S3C3,0.22746722
Sc4Mn2Zn3N3,0.22750695
V4Y2Pb3C3,0.22751243
Lu4Mo2Cd3N3,0.22755882
Ti4Mo2Co3C3,0.22762273
Mo4V2Au3N3,0.2277757
Mn4W2Cu3N3,0.22777672
Lu4V2S3N3,0.22779007
Nb4Hf2Pb3N3,0.22780311
Lu4Mn2Au3C3,0.22783042
Cr4Ta2As3N3,0.22784199
V4Zr2Pb3N3,0.22785227
Cr4Lu2As3C3,0.22788604
Ta4V2P3N3,0.22788936
Sc4Sc2Co3N3,0.2280257
Ta4Mn2Zn3N3,0.22813113
Mo4Mo2S3N3,0.22816624
Mn4V2Fe3N3,0.22817415
Zr4Mn2Zn3N3,0.22822674
Hf4Ta2Sb3N3,0.22825761
Lu4Lu2Ni3C3,0.22836319
Zr4Sc2Ni3C3,0.22840448
Zr4Mn2Pb3C3,0.2284292
Nb4Ti2Fe3C3,0.22848482
Hf4Ta2Ni3N3,0.22849424
Sc4Mo2Zn3N3,0.22850762
V4Ta2S3N3,0.2285114
V4Cr2Co3N3,0.22852086
W4Nb2Cd3C3,0.22862208
Cr4Y2Sn3N3,0.22865187
Hf4Cr2Tl3C3,0.22874643
Mn4Lu2Pb3C3,0.22875457
Hf4Cr2Al3N3,0.22884828
Mo4Sc2Cd3N3,0.22884974
Nb4Mo2Cu3C3,0.22898643
Sc4Lu2P3N3,0.22911753
Nb4Mn2Cd3N3,0.22929376
Ta4Sc2Cu3N3,0.22932251
Zr4V2Ni3N3,0.2293363
Mo4V2Zn3N3,0.22945057
Lu4Ta2Sb3N3,0.22946239
Zr4W2Ga3N3,0.22946857
Cr4Sc2Sn3N3,0.22952847
Mo4Sc2Au3N3,0.22961254
W4W2Ge3C3,0.22964658
Mo4Mn2Co3N3,0.22981441
Ta4V2As3N3,0.22982518
W4Mn2Ni3C3,0.2298411
Ta4V2Sn3N3,0.22984603
V4W2Co3N3,0.22989817
Zr4Cr2P3N3,0.22990361
W4V2Sn3C3,0.229934
Ti4V2Co3N3,0.22996117
Mo4Sc2S3N3,0.23009738
W4Mo2Ga3N3,0.23020989
Mn4Ta2In3N3,0.2302427
Mo4Mn2P3C3,0.23029962
W4Ti2Fe3C3,0.23038492
Mo4Ti2Zn3N3,0.23050785
Mn4Ta2Cd3N3,0.23072676
Lu4Ta2Cu3N3,0.23081116
Ti4V2Ni3C3,0.23083505
Zr4Mn2Cd3N3,0.23091659
Nb4Mn2Cu3C3,0.23093742
Ti4Lu2As3N3,0.23094687
Nb4Cr2Tl3C3,0.23095724
Nb4Ti2Co3C3,0.2309593
Hf4Lu2Co3C3,0.23105714
Lu4Nb2As3N3,0.23112497
Hf4Ta2Pb3N3,0.2311509
Mn4W2As3N3,0.23118556
Zr4Hf2Co3N3,0.23125248
Lu4V2Bi3C3,0.23125495
W4W2Co3C3,0.23128536
Cr4Zr2Tl3C3,0.23136316
Zr4Zr2Fe3N3,0.23137297
Sc4Mn2Ge3N3,0.2314249
Ta4Zr2P3N3,0.23145239
Hf4Mn2As3N3,0.23157808
Zr4W2As3N3,0.23163255
Lu4Hf2As3C3,0.23163775
Cr4Lu2Bi3C3,0.23168755
Mn4Lu2Cu3N3,0.23168808
Cr4W2As3N3,0.23174123
Y4Mo2Sn3N3,0.23175764
Ti4W2Au3N3,0.23178639
Ta4Nb2Sn3N3,0.23181908
Mo4Mn2S3C3,0.23182891
Sc4Lu2As3N3,0.23196432
Sc4Mn2Cd3N3,0.2319737
V4W2Zn3N3,0.23207106
Y4Zr2Sb3C3,0.23209058
Lu4Hf2P3C3,0.23210098
Cr4Mn2Sb3N3,0.2321241
Nb4Zr2Co3N3,0.23214315
Mo4Ti2Fe3C3,0.2321814
Ta4Y2Si3N3,0.23219374
Nb4Lu2Si3N3,0.23219536
Lu4Mo2S3N3,0.23221223
Lu4Lu2Au3N3,0.2322935
V4Mo2Si3N3,0.23234265
Ta4Hf2Co3N3,0.23239736
Lu4Ti2Au3N3,0.2324202
Hf4W2Zn3N3,0.23243366
Mo4Lu2Bi3C3,0.23245756
Cr4Nb2Si3N3,0.23251179
W4Sc2Tl3C3,0.23254241
Sc4Mo2Sb3N3,0.23256972
W4Mo2In3C3,0.23257682
Cr4Y2As3N3,0.23260267
Sc4Mo2P3N3,0.23267236
Ti4W2Co3C3,0.23269019
Mo4Ti2As3N3,0.23272891
Cr4Cr2Si3N3,0.23273711
Nb4Mn2S3N3,0.23274747
Zr4Cr2Ni3C3,0.23282538
Lu4Ta2As3C3,0.23298593
W4V2Co3C3,0.23298651
Nb4Sc2Pb3N3,0.23321643
Ta4W2Cu3C3,0.23322363
Sc4Zr2Co3N3,0.23325384
Mo4Nb2Co3N3,0.23332696
Mo4V2Sn3N3,0.23342463
Zr4Mo2Cu3C3,0.23362589
Lu4Zr2P3C3,0.23366475
Mo4Ta2In3N3,0.23370175
Sc4Hf2Ni3N3,0.23370792
Nb4Nb2Cu3N3,0.2337983
Hf4Cr2Ge3N3,0.23389772
Lu4Mo2In3N3,0.23409665
W4Mo2Cd3C3,0.23416592
Nb4Hf2Co3N3,0.23419163
Cr4Zr2Sn3N3,0.23419501
Nb4Sc2Ni3N3,0.23420295
W4Nb2Fe3N3,0.23449071
W4Cr2As3C3,0.23463021
Sc4Cr2Zn3N3,0.23463699
Hf4Lu2Fe3C3,0.23463893
Mo4Mo2Ni3C3,0.23472008
Zr4Y2P3C3,0.23483719
Hf4Sc2Ni3C3,0.23484471
Hf4Y2Sb3N3,0.23489898
W4Ta2Cu3C3,0.23493637
Hf4Mo2P3N3,0.2349456
Y4V2Cu3N3,0.23495492
Nb4Ta2P3N3,0.23497139
Mo4Lu2Ni3N3,0.23497199
W4W2Co3N3,0.23500225
Nb4Cr2S3N3,0.2350708
Nb4Sc2Co3N3,0.23514687
Mo4Ti2Sn3N3,0.23534831
Mn4Lu2Cd3N3,0.23549874
Lu4Ta2P3N3,0.2355474
Mn4Cr2Sb3N3,0.23571268
Hf4Mn2S3N3,0.23576827
Lu4Mo2As3C3,0.2358407
Nb4Y2As3C3,0.2360186
Y4W2Sb3C3,0.23602968
Mn4Lu2Fe3N3,0.23625965
Zr4Mo2P3N3,0.23664753
Y4Nb2P3N3,0.23667763
Hf4Mn2Pb3C3,0.2367838
Lu4Mo2Sn3N3,0.23682927
Mn4Y2Fe3N3,0.23694322
Cr4Zr2Bi3C3,0.23698996
Mn4Mo2S3N3,0.23700987
V4Mn2Sn3N3,0.23722383
Ta4Ti2S3N3,0.23722877
Mo4V2Tl3C3,0.23723875
Nb4Mo2Au3N3,0.23725206
Hf4Mn2Sn3N3,0.2373286
Ta4Cr2Ge3N3,0.23740199
Y4V2Ni3N3,0.23745592
Mn4Ti2As3N3,0.23745874
Sc4W2Al3N3,0.23747773
V4Mo2P3N3,0.23750103
Y4Sc2Au3N3,0.23753585
Y4Y2As3C3,0.23760343
Lu4Mn2Ga3N3,0.23763336
Sc4Nb2Ni3C3,0.23768947
Mn4Hf2In3N3,0.23771487
Ti4Cr2Sb3N3,0.2377784
Mo4Lu2P3C3,0.23785825
Mn4Mn2Tl3C3,0.23789014
Sc4Cr2Al3N3,0.23792602
W4Ta2In3C3,0.23826694
Mn4W2Sn3C3,0.2382839
Lu4Nb2Au3C3,0.23829567
Lu4Lu2Co3C3,0.2383301
Mo4Y2Tl3N3,0.23841481
Nb4Y2Sb3C3,0.23852462
Hf4Mn2Tl3C3,0.23858568
Lu4Nb2Sb3N3,0.2386241
Y4W2Ni3C3,0.23865403
Nb4Sc2Tl3N3,0.23870873
Hf4Ti2Co3N3,0.23881996
Y4Mn2Sn3N3,0.23893644
V4Mn2P3N3,0.23894222
Mn4Hf2As3N3,0.23898475
Y4Hf2P3N3,0.23911367
Nb4Mo2Ge3N3,0.23930356
Y4Sc2Co3C3,0.23932248
Sc4Mn2Cu3N3,0.23935376
Lu4Nb2Cu3N3,0.23938279
Y4Ta2As3N3,0.23940767
Mn4Y2As3N3,0.2394399
Ti4Mn2Si3N3,0.23951444
Ti4Lu2Bi3N3,0.23955213
Zr4Sc2Co3N3,0.23966537
Lu4Zr2Au3C3,0.23980075
Nb4Mn2Ni3C3,0.23986453
Mn4Sc2As3N3,0.23988493
W4Ta2Cd3C3,0.23991333
V4Mn2Tl3C3,0.23994662
Y4Ta2Co3C3,0.23999426
Zr4Sc2Co3C3,0.24002197
Y4V2Au3N3,0.24004021
Hf4Nb2Co3C3,0.24011777
Lu4Hf2Sb3N3,0.24024047
Sc4Lu2Fe3C3,0.24024351
Nb4Mn2Sn3N3,0.24045095
Ta4Mn2Ni3C3,0.24054281
W4V2Cu3C3,0.2405931
Hf4Sc2Co3C3,0.2407112
Sc4Cr2P3C3,0.24078974
Zr4Mo2Co3C3,0.24079001
W4W2Cu3C3,0.24079773
Lu4Lu2P3C3,0.24082527
Zr4Mn2Ge3N3,0.24085218
Y4Ta2Sb3N3,0.24086252
Mo4Hf2Sn3N3,0.24100995
Mo4Mo2S3C3,0.24102114
Lu4Sc2P3N3,0.24120902
Y4V2S3C3,0.2413225
Mn4W2S3C3,0.24137115
Hf4Mo2Ge3N3,0.24153447
Ta4Cr2In3N3,0.24157745
Ti4V2Co3C3,0.24158457
Y4Hf2Sb3C3,0.24158761
Nb4Mn2P3N3,0.24169874
W4Cr2Cu3C3,0.24188767
Mn4Hf2Cd3N3,0.24202514
W4Cr2Ni3N3,0.24206688
Ta4Y2Tl3N3,0.24212906
Zr4Mn2Au3N3,0.24219437
Ta4Ta2In3N3,0.24224222
W4Cr2P3C3,0.2422472
Y4Mn2Si3C3,0.24229062
Mn4Zr2Sn3N3,0.24256466
Lu4V2Au3N3,0.24264072
Mn4Ta2Sb3C3,0.2426815
Ta4Ta2Pb3C3,0.24276187
Mo4Nb2Cu3N3,0.24276818
W4Mn2Cd3C3,0.24276981
W4Lu2Ga3N3,0.24278624
V4Mn2Co3N3,0.24285622
Mn4Mo2P3N3,0.24288051
Lu4Cr2Bi3C3,0.24296533
Cr4Sc2S3C3,0.2429923
Mo4Nb2Cd3N3,0.24307515
Nb4Nb2Fe3N3,0.24315636
Sc4Sc2Ni3N3,0.24321891
Hf4Zr2Fe3C3,0.24323033
Cr4Ti2Si3N3,0.24325295
Mo4Ta2Ni3N3,0.24326658
Ta4Mn2Tl3C3,0.2432886
Ti4Y2Bi3C3,0.24331693
V4Nb2Tl3N3,0.2433218
Mo4W2Ga3N3,0.24335064
Lu4Y2Sb3N3,0.24335867
Y4Nb2Ni3N3,0.24336196
Sc4Ta2Ni3C3,0.24339989
Ta4Lu2Sb3C3,0.24341992
Ta4Lu2Si3N3,0.2434793
V4Lu2S3N3,0.24351041
Ti4Cr2Tl3N3,0.24361321
Mn4Lu2Ge3N3,0.24377231
Lu4Nb2Bi3N3,0.24377961
Zr4Mo2Sb3N3,0.24382308
Sc4Y2Bi3N3,0.24382609
Cr4V2Cu3N3,0.24386825
Sc4Sc2As3N3,0.24388084
Mo4Ta2Co3N3,0.24400176
Ti4Mn2Cu3N3,0.24414402
Sc4Ta2Ni3N3,0.24417499
Ti4Lu2P3C3,0.24419904
Ta4Nb2Cd3N3,0.24421355
Mo4Nb2Tl3C3,0.24431257
Mo4Nb2Ni3N3,0.24438973
W4Ta2Si3C3,0.24493046
V4Mn2Fe3N3,0.24495138
Mo4Mn2Fe3N3,0.24504912
Ta4Ta2Ni3C3,0.24505952
Cr4Y2Tl3N3,0.24532002
Zr4Hf2Ni3C3,0.24542388
V4Cr2Fe3N3,0.24569997
Ti4W2Cu3N3,0.24587956
Hf4Hf2Ni3C3,0.24590805
Hf4Cr2Cu3C3,0.24591072
W4Mo2Co3C3,0.24594828
Nb4Y2P3C3,0.24596766
Ta4Lu2Sn3N3,0.24598108
W4Mo2Sn3C3,0.24599981
Zr4Zr2Co3C3,0.2460027
Nb4W2Tl3C3,0.24603629
Hf4Zr2Ni3C3,0.24608055
Lu4Mn2Bi3C3,0.24608253
Ta4V2Pb3C3,0.2460921
Mn4Cr2P3N3,0.2462648
Mn4W2Sn3N3,0.24630572
Sc4Zr2P3N3,0.24631335
V4Cr2Fe3C3,0.24632418
Cr4Cr2Sb3N3,0.24652886
V4Nb2Bi3C3,0.24659365
Y4Mn2Ga3N3,0.24662925
Sc4Mo2Si3N3,0.2466958
Y4Zr2P3N3,0.24670121
Ta4Nb2Cu3N3,0.24676022
V4Ta2Sb3N3,0.24676912
Mo4Hf2As3N3,0.24692853
Y4Y2Fe3N3,0.2470037
Sc4Cr2Cd3N3,0.24703433
Ti4Nb2Bi3N3,0.24703959
Lu4Hf2As3N3,0.24723868
Y4Sc2Ni3C3,0.24748804
W4Cr2Sn3C3,0.24749584
Ta4V2Bi3C3,0.24753071
W4Mn2In3C3,0.24753107
Nb4Mo2Co3C3,0.24790142
Hf4Y2Sb3C3,0.24796912
Cr4V2Si3N3,0.24808845
Y4Ta2Bi3C3,0.24819975
Cr4Hf2P3N3,0.24829781
Sc4Mn2Tl3N3,0.24846746
Sc4Cr2As3N3,0.2484856
Cr4Ta2Sb3C3,0.2485251
Lu4Ti2Co3C3,0.24861059
V4W2Au3N3,0.2486548
Sc4Ti2Ni3C3,0.24872395
V4Hf2Pb3N3,0.24878284
Y4Ti2Bi3C3,0.24882744
Hf4Mn2Ge3N3,0.2488291
Y4Ta2P3N3,0.24883895
Lu4W2Ga3N3,0.24900676
Ta4W2Ga3N3,0.24914671
Y4Y2Au3N3,0.24918342
Mo4Ta2Zn3N3,0.24921173
Nb4Ta2As3N3,0.24921228
Mn4W2Cd3N3,0.24925014
Zr4Ta2Ni3N3,0.24927455
Nb4W2Co3C3,0.2492971
W4Ti2Tl3C3,0.24930136
Y4Nb2Ni3C3,0.24938983
Ta4Sc2Sb3N3,0.24941754
Y4Mn2In3N3,0.249533
Ta4Lu2P3N3,0.2497525
Ti4W2Cd3N3,0.24977578
Mn4Y2Sn3N3,0.24982964
Y4Mo2Bi3C3,0.24992064
Cr4Sc2Si3N3,0.24997056
Lu4Cr2Co3C3,0.25006384
Y4Hf2Fe3C3,0.2501192
Mo4Y2Bi3C3,0.2501278
Lu4W2P3C3,0.2501944
Hf4Zr2Co3C3,0.25022495
Y4Mo2Cd3N3,0.25031844
Hf4Cr2Pb3C3,0.25034446
Lu4Cr2Ge3N3,0.25035542
Ta4W2Si3C3,0.25045252
Mo4Mo2Co3C3,0.2505017
Mo4Ta2Au3N3,0.25059643
Sc4Mo2Co3C3,0.25060546
Lu4V2Cu3N3,0.25064448
Ti4Cr2Pb3N3,0.25065055
W4Cr2Cd3C3,0.25068006
Sc4Ta2Bi3N3,0.25068521
Nb4Cr2Pb3C3,0.25073197
W4Lu2Tl3C3,0.25074247
Hf4W2P3N3,0.25081047
Sc4Mn2Sb3N3,0.2508857
W4Mo2Cu3C3,0.2510127
Ta4Sc2S3N3,0.2511295
Sc4Sc2P3N3,0.25125536
V4Mo2Cu3N3,0.25126404
Ta4Ta2Bi3C3,0.25132814
Cr4Hf2Si3N3,0.25140667
W4Zr2Tl3C3,0.2517333
Cr4W2S3C3,0.25174278
Cr4Y2Bi3C3,0.25177106
Ta4Ta2Cu3N3,0.25180817
Ti4W2Si3N3,0.25181407
Mn4Lu2S3N3,0.2519749
Zr4W2Ge3N3,0.25197965
Nb4V2Ni3N3,0.25200537
Ta4Mn2Cu3C3,0.25222188
Ti4Mn2Sb3N3,0.2523405
Hf4Y2P3C3,0.25238425
Y4W2Ge3N3,0.25239223
Cr4V2Al3N3,0.25247687
W4Lu2Sb3C3,0.25257835
Cr4Ti2Sn3N3,0.25259584
Cr4Zr2P3N3,0.25262982
Ta4Y2Sn3N3,0.2526607
Sc4Zr2Co3C3,0.2526872
Ti4W2In3N3,0.2527168
Mn4Cr2Tl3C3,0.25278193
Hf4Cr2Bi3C3,0.2529374
Mn4Hf2Sn3N3,0.25316653
Y4Y2Sb3N3,0.25316998
Y4Mo2S3N3,0.2532754
Cr4Lu2Sn3N3,0.25330633
Mn4Ti2Sn3N3,0.25337145
Y4Mn2S3N3,0.25381824
Lu4Mn2Sn3N3,0.25388685
Y4Lu2Fe3C3,0.25389948
Mo4Mn2Sb3N3,0.25392127
Nb4Cr2Si3N3,0.25397024
Ti4Lu2P3N3,0.2539974
Y4Nb2Sb3N3,0.2541338
Mo4Hf2Ni3N3,0.25430533
Lu4Lu2P3N3,0.2543622
Nb4Hf2Tl3N3,0.2544197
Mn4Nb2Tl3C3,0.254431
Lu4Ti2P3N3,0.25446978
Nb4Ta2Ni3N3,0.25453398
Mn4Mn2Co3C3,0.25453773
Ta4Ta2Cd3N3,0.25456852
Ti4Mo2Co3N3,0.2546629
Lu4Hf2Bi3N3,0.25480238
Y4Mo2Tl3N3,0.2548996
Mo4Nb2As3N3,0.25490925
Hf4Mn2Cu3C3,0.25493938
Zr4Hf2Co3C3,0.2550203
Lu4Cr2Sn3N3,0.25509736
Sc4Mn2Au3N3,0.25511104
Lu4V2Si3N3,0.25514325
V4Cr2Tl3C3,0.25553948
Y4Nb2Co3C3,0.2557002
Lu4W2As3N3,0.25572518
V4Lu2Sb3N3,0.2557338
Y4Ti2Au3N3,0.25573567
W4Cr2Co3C3,0.25581703
Sc4Cr2Tl3N3,0.25587666
Lu4Zr2As3N3,0.25590953
Mo4Mn2Ni3N3,0.25593522
Hf4W2Al3N3,0.25617433
Mn4Ta2Sn3N3,0.25618082
Lu4Hf2Co3C3,0.25628108
Mo4Ti2Cd3N3,0.25629994
Ta4Nb2Co3N3,0.2563338
Lu4Ti2Bi3N3,0.25638723
W4W2Cd3C3,0.2563994
Mn4Hf2S3C3,0.25647542
Nb4Ta2Fe3N3,0.25648805
Ta4Mn2Ga3N3,0.25650358
Y4Sc2As3C3,0.2565778
Nb4Y2P3N3,0.25662968
Hf4W2As3N3,0.25667524
Cr4Y2Si3N3,0.25669155
Ta4Mo2Al3N3,0.25671422
Zr4W2Zn3N3,0.2567612
Mo4Hf2Pb3C3,0.25688243
Lu4Y2Bi3N3,0.25690123
V4Lu2Pb3N3,0.25696883
Sc4V2Ni3C3,0.25700977
Y4Cr2Cu3C3,0.2570098
Zr4Y2As3C3,0.25718102
W4W2In3C3,0.25733808
V4V2Fe3N3,0.25734246
Nb4Mo2Al3N3,0.2573558
Nb4Sc2Si3N3,0.25735974
Zr4Cr2Sb3N3,0.25738478
Y4Mo2S3C3,0.25738588
Cr4Nb2S3N3,0.25739846
V4V2Bi3C3,0.2575836
Mn4Sc2In3N3,0.25767604
W4Zr2Sb3C3,0.25767913
Cr4Sc2P3N3,0.257827
Ta4Lu2As3N3,0.2579157
Nb4Ta2Cu3N3,0.25795203
Lu4Mo2Zn3N3,0.25801483
Y4Lu2P3N3,0.25806826
Lu4Ti2Cu3N3,0.25816733
Nb4Sc2Fe3N3,0.2582642
Sc4Mn2Pb3N3,0.25835267
Ti4W2Sn3N3,0.2583533
Zr4V2Co3C3,0.25835764
W4Lu2Au3N3,0.25843972
Mn4Zr2Al3N3,0.25847587
W4Mn2Zn3N3,0.25848094
Mo4Zr2Co3N3,0.25860327
Mo4Mn2Fe3C3,0.25870162
Y4Mn2Au3N3,0.25872168
Mo4Zr2Ni3N3,0.25875756
V4Ti2Bi3N3,0.25881666
Sc4Ti2P3N3,0.25887537
Ta4Cr2Al3N3,0.25889406
Mo4Zr2Cu3N3,0.25909993
Cr4W2Ge3N3,0.25910586
Sc4Hf2Co3C3,0.25912026
Y4Ta2Fe3N3,0.25920093
W4Mn2P3C3,0.25920832
V4Lu2Bi3C3,0.2592443
W4Sc2Ga3N3,0.25928384
Lu4Hf2Au3C3,0.25929978
Ta4Lu2Tl3N3,0.25940636
Mo4Ta2Cu3N3,0.2595096
Y4W2Ga3N3,0.25955918
Zr4Hf2Fe3C3,0.2596092
Zr4Mo2S3N3,0.25961792
Mo4Ta2Fe3N3,0.25962985
Mn4W2In3N3,0.2596317
Mn4W2Sb3C3,0.2596786
Cr4Ta2Sn3N3,0.259733
Y4Lu2Au3N3,0.25975272
Hf4Cr2Cu3N3,0.25986615
Hf4Cr2Si3N3,0.25995898
Zr4Sc2Fe3N3,0.25997865
Zr4V2Fe3C3,0.2600037
Ta4Nb2Bi3C3,0.26005948
Nb4Mo2As3N3,0.26008222
Nb4Cr2Co3C3,0.26008883
Sc4Cr2P3N3,0.26021323
Mn4Hf2S3N3,0.26022714
V4Lu2Sb3C3,0.26023412
W4Sc2Sb3C3,0.26027355
Zr4Cr2Cu3N3,0.26042515
Ta4Cr2Cd3N3,0.26047787
Mo4W2Cu3N3,0.2605379
W4Mn2As3C3,0.26055542
Y4Y2Bi3N3,0.26056418
Nb4Mo2Pb3C3,0.26079652
V4Cr2Sb3N3,0.26084867
Y4Sc2Fe3C3,0.26086563
Cr4Mo2P3N3,0.26089522
Cr4Nb2Al3N3,0.26092166
Cr4Mn2P3N3,0.26093486
Ti4Ta2Bi3N3,0.26102802
Y4Nb2Sb3C3,0.26102868
V4W2As3N3,0.26109645
Cr4Hf2Sn3N3,0.26118186
V4Mn2Co3C3,0.2611834
Mo4Zr2Fe3N3,0.26125738
Zr4Cr2Co3C3,0.26125976
Mo4Ti2Bi3C3,0.2612617
Lu4Cr2Ga3N3,0.26133332
Nb4W2Au3N3,0.26136672
Mn4Zr2Tl3C3,0.2616156
Mn4V2P3N3,0.2616931
V4W2Cu3N3,0.26179293
Mn4Ti2Tl3C3,0.26182738
Nb4Cr2Co3N3,0.26194376
Ti4Mo2Tl3N3,0.26194826
Zr4Zr2Ni3C3,0.2620704
Y4Mn2Ge3N3,0.26236707
Hf4W2Au3N3,0.26248172
Nb4Zr2Bi3N3,0.2625035
Y4Zr2Sb3N3,0.26257786
Mo4Cr2Tl3C3,0.2627466
Mn4Ti2P3N3,0.2627525
Hf4W2Ge3N3,0.26277402
Lu4Mo2P3C3,0.26282427
Sc4W2In3N3,0.26305577
V4V2Tl3N3,0.26306203
V4Lu2As3C3,0.2630843
Lu4Zr2Cu3C3,0.26318303
Nb4Ti2Bi3N3,0.2633101
Cr4Ta2Si3N3,0.2634402
Sc4Mo2Au3N3,0.26346892
Hf4Hf2Co3C3,0.2635636
Mn4Cr2Tl3N3,0.26358822
Lu4Y2Fe3C3,0.26363015
Sc4Hf2Ni3C3,0.26368707
Nb4Cr2Sb3N3,0.26379567
Mn4Mo2Tl3C3,0.26385453
Y4Mo2Al3N3,0.26388863
Nb4Mo2Cd3N3,0.26420665
Lu4Mo2As3N3,0.2644145
Zr4Mn2Cu3C3,0.26442203
Mn4Lu2In3N3,0.26447058
W4Mn2Cu3C3,0.26477647
Hf4Hf2Fe3N3,0.26480237
Nb4Cr2Ni3N3,0.26485053
Ti4Mo2Ni3N3,0.26495776
Lu4Cr2S3C3,0.26498172
Cr4Mo2Sb3N3,0.26500398
Zr4Cr2Si3N3,0.26510885
Sc4Cr2Si3N3,0.26532236
Mo4Mo2P3N3,0.2653334
Nb4Mn2Sb3N3,0.26540932
Mo4W2Zn3N3,0.26543665
Hf4W2Co3C3,0.26544806
Nb4W2Ge3N3,0.26561913
Sc4Cr2Sb3N3,0.26562047
Mn4Lu2P3C3,0.26572087
Sc4Nb2Ni3N3,0.26574233
Mo4W2Ni3C3,0.26583275
Zr4Hf2Fe3N3,0.26584873
Ta4Sc2Fe3N3,0.26585564
Y4Mn2Tl3N3,0.26605278
Mo4Hf2Co3N3,0.26605386
Lu4Sc2Cu3N3,0.26614022
Ta4Cr2Co3C3,0.2663172
Sc4Y2Fe3N3,0.26634213
Ta4Sc2Si3N3,0.26635313
Sc4Sc2Fe3C3,0.26646402
Hf4Sc2Fe3N3,0.26653653
Y4Ta2Sb3C3,0.2666774
Hf4W2Bi3C3,0.26669928
Lu4Cr2Sb3C3,0.2667392
Hf4V2Co3C3,0.2667433
Mo4W2Ni3N3,0.26674968
Y4V2Sb3N3,0.26690772
Y4Lu2As3C3,0.26700345
Nb4Mn2Cu3N3,0.26707497
Mo4V2As3N3,0.26714683
Mo4Hf2Cu3N3,0.2671799
Nb4Ta2Co3N3,0.26730645
V4Mo2Sb3N3,0.26731312
Ta4Cr2Fe3N3,0.2675081
Cr4Lu2Si3N3,0.26758677
Ti4W2Fe3C3,0.2676025
Mn4Sc2Sn3N3,0.26760617
Zr4Mn2Cu3N3,0.26790053
V4Ta2Bi3C3,0.26798564
Mn4Zr2Bi3C3,0.26823166
Cr4Mn2Co3C3,0.26832536
Sc4Mn2As3N3,0.26834676
W4Lu2Pb3C3,0.26838452
Lu4Cr2S3N3,0.26846752
Y4Lu2Sb3N3,0.26847175
Nb4Nb2Tl3N3,0.26850188
Y4Sc2Fe3N3,0.26851174
V4W2In3N3,0.26870877
Ta4Nb2As3N3,0.26875386
Y4Mn2Cu3C3,0.2687702
Lu4Hf2Fe3C3,0.26891574
Mo4Sc2Sb3N3,0.2689635
Mn4Ta2As3N3,0.26903337
Mo4Y2As3C3,0.26906094
Sc4Cr2Au3N3,0.26918712
W4W2Fe3C3,0.2692178
Y4Mo2Sb3N3,0.269313
Hf4Mn2Cu3N3,0.26933512
Lu4Mn2In3N3,0.2693551
Ta4Y2P3C3,0.2694708
Cr4Mn2Tl3C3,0.26947883
Zr4W2Au3N3,0.26949036
Cr4Lu2P3C3,0.26960337
Mo4Mn2Tl3C3,0.2696962
Ta4Sc2Tl3N3,0.2699095
W4W2Sn3C3,0.2699105
Y4Nb2As3N3,0.26993784
Y4Mn2Cd3N3,0.27007836
Mo4Nb2Fe3N3,0.27016422
Y4Y2Fe3C3,0.27022257
Lu4Y2Fe3N3,0.27025613
Mo4Sc2Cu3N3,0.27032107
Mo4Mo2Tl3C3,0.27036577
Ti4Y2Sb3N3,0.2704662
Lu4Ti2Sb3N3,0.27053112
Nb4W2Zn3N3,0.2706457
W4Nb2Co3N3,0.27070275
Lu4Mo2P3N3,0.27077165
W4Mo2As3C3,0.27100864
Sc4Hf2Co3N3,0.27103007
Ta4Ti2Sb3N3,0.2710321
Zr4W2Al3N3,0.27106363
Lu4Mo2Al3N3,0.27106717
Mn4Lu2As3N3,0.27108264
Y4Zr2Ni3C3,0.2711268
Mo4Hf2Fe3N3,0.2714071
Lu4Ti2P3C3,0.27156788
Mo4Ta2Tl3C3,0.27174997
Y4Lu2Bi3N3,0.27177402
Mo4W2Co3C3,0.27187282
Mo4Ta2Ge3N3,0.2718913
Y4Mn2Zn3N3,0.27191505
Mn4Hf2P3N3,0.27193385
Y4W2Zn3N3,0.27193436
Nb4Y2Bi3C3,0.27199617
Mo4Cr2Sb3N3,0.27212128
Ta4Ta2Co3N3,0.27218795
Mo4W2P3C3,0.27219695