formula,Ehull
Ta4Mo2P3C3,0.08139133
V4Hf2Fe3N3,0.08155579
Zr4Nb2Cd3N3,0.08160004
Y4Hf2Ga3N3,0.08161665
W4Hf2Ga3C3,0.08168842
Cr4V2Ga3N3,0.08174304
V4Sc2Cd3N3,0.08183766
Cr4V2Ge3N3,0.08202776
Sc4Zr2S3N3,0.08210832
Y4Zr2In3C3,0.08211136
Zr4Hf2S3N3,0.0821315
Hf4Sc2Ge3C3,0.08215207
Ti4Cr2Au3C3,0.08217405
Ti4Nb2Ge3N3,0.082387544
Ti4Lu2Ni3C3,0.08244603
Ti4Ta2Bi3C3,0.08247519
W4Y2Cu3C3,0.08256197
Nb4V2Si3C3,0.082615435
Zr4Y2Cd3C3,0.08262052
Cr4Sc2Ga3N3,0.08263642
Sc4Ti2Cd3C3,0.08267994
Nb4V2Sb3C3,0.08269921
Ta4Sc2S3C3,0.08272106
Cr4Ta2Ni3C3,0.082771294
W4Nb2Al3C3,0.08277308
Y4Nb2Pb3C3,0.08281335
Hf4Ti2S3N3,0.082818836
Hf4Zr2Au3N3,0.08285494
Y4Lu2Au3C3,0.082888976
Nb4Sc2In3N3,0.08290237
Lu4Mo2Au3C3,0.0829276
Nb4Zr2Bi3C3,0.08295402
Ta4Ti2Ga3N3,0.08300142
Ti4Hf2Si3N3,0.08303493
Hf4Zr2Ge3N3,0.08310327
Ta4Hf2Cu3C3,0.08311581
Sc4Hf2Bi3C3,0.08312321
Lu4Y2Ge3C3,0.08313838
Zr4Lu2Ge3C3,0.083207026
Hf4Ti2As3N3,0.0834351
Lu4V2Pb3C3,0.08349977
V4Mn2As3C3,0.08353917
Hf4Lu2Ge3N3,0.08359166
V4Zr2Ni3N3,0.08364725
Sc4Mo2Sb3C3,0.083714575
Hf4Ti2P3N3,0.08374225
Y4Mo2Sn3C3,0.08378767
Ti4Y2Co3C3,0.08380831
Ta4Mn2Ga3C3,0.08385781
Cr4Hf2Si3C3,0.0838783
Sc4Ti2Zn3C3,0.08392815
V4Y2Zn3N3,0.08407698
Y4Ta2Pb3C3,0.084100425
Sc4Lu2Cu3C3,0.08410445
Ti4Sc2Co3N3,0.08417007
Ta4Sc2Cu3C3,0.08420211
Hf4Ti2As3C3,0.084369235
Mn4W2Al3C3,0.08437826
Mo4W2Al3C3,0.084390976
Mn4Mo2Co3N3,0.08439917
Sc4Zr2Al3N3,0.084441505
Ta4Ti2Sb3C3,0.084549576
Ti4Hf2P3C3,0.084583014
Lu4Ti2S3C3,0.08479364
V4Cr2S3C3,0.08483926
Sc4Lu2Zn3N3,0.08489863
V4Ti2Si3N3,0.08496026
Cr4Zr2Si3C3,0.08497227
Y4Sc2In3C3,0.08499933
Ta4V2Si3C3,0.08503421
Zr4Sc2Ge3N3,0.08504554
Y4Ta2Si3C3,0.08509518
V4V2Si3N3,0.08511284
Zr4Sc2Sb3C3,0.08513013
V4Ti2Tl3C3,0.08525354
Nb4Y2Si3C3,0.08528853
Zr4Zr2As3C3,0.0854118
Hf4Ti2Pb3N3,0.085483566
Sc4Ta2Ge3N3,0.085629076
Ti4Sc2Si3N3,0.08565957
Cr4V2As3C3,0.085674495
Zr4Mo2S3C3,0.08572424
Zr4Nb2Sn3N3,0.08578879
Mo4Nb2As3C3,0.08581053
Cr4Nb2Au3C3,0.085841745
Ti4Ti2Si3N3,0.085857116
Nb4Sc2Cu3C3,0.08603529
Y4Nb2Al3C3,0.08605874
V4Zr2Cd3N3,0.08606634
Lu4V2Tl3C3,0.08611506
Zr4Sc2Bi3C3,0.08621347
Cr4Hf2Ga3N3,0.08626927
W4Ti2Ge3C3,0.086321674
Mn4Zr2Ga3N3,0.0863843
Mn4Nb2Zn3N3,0.086397775
Hf4Hf2Au3N3,0.08640126
V4Nb2Co3C3,0.086460754
Nb4Cr2Au3C3,0.086576186
Zr4Ta2Bi3C3,0.08658157
Cr4Ti2In3C3,0.08661026
Nb4Hf2In3N3,0.086617365
Sc4Y2Sn3N3,0.08662177
Ti4Ta2As3N3,0.08666984
Ta4Zr2Ni3C3,0.08670189
Lu4V2Sn3C3,0.086717635
Y4Lu2In3C3,0.086797945
Lu4Cr2Zn3C3,0.08696713
Lu4Nb2In3N3,0.08698898
Mo4Ti2Cd3C3,0.08702716
V4Sc2Tl3C3,0.08703232
Sc4Ti2Bi3C3,0.087038204
Hf4Mo2Cd3C3,0.08706893
Hf4Ta2Pb3C3,0.087093756
Sc4Mn2Ge3C3,0.087123215
Hf4Sc2Ge3N3,0.08719466
V4Y2Cu3C3,0.08724833
Lu4V2In3C3,0.087280095
Y4Y2Pb3N3,0.08739251
Mn4Hf2Co3C3,0.087399416
Mo4Y2Au3N3,0.087476656
Cr4Nb2Si3C3,0.08748342
Ti4Lu2Si3C3,0.08756184
V4Hf2Tl3C3,0.08767961
Nb4Hf2Ga3N3,0.08773024
Lu4Y2In3N3,0.0878414
Zr4W2Si3C3,0.08786445
Sc4V2S3C3,0.087904096
Cr4Ti2As3C3,0.08799643
Zr4W2Au3C3,0.08800081
Mo4Y2Ge3C3,0.088054106
Nb4Cr2P3C3,0.088060886
Ti4Y2Au3N3,0.08807644
Mo4Ta2Zn3C3,0.08817154
V4Mo2P3C3,0.08818697
Mn4Mo2Zn3N3,0.08827631
Mo4Mo2Sn3C3,0.08835063
Zr4Y2Sn3N3,0.08839435
Cr4Ta2Au3C3,0.088553086
Y4Nb2Si3C3,0.088679284
Cr4Mn2Ge3N3,0.088690005
Ti4Sc2Ni3C3,0.08869618
Hf4V2Cd3N3,0.088716425
Mn4Zr2Zn3N3,0.08872799
Nb4W2P3C3,0.08884313
Sc4Zr2Cd3N3,0.08887292
Hf4Y2Ga3C3,0.088895865
Zr4Nb2Al3N3,0.08891432
V4Mo2Sn3C3,0.08892085
Cr4V2Au3C3,0.089023575
Lu4Y2Cu3C3,0.089038
Sc4Zr2Sb3C3,0.089090616
Mn4Cr2Ge3N3,0.08914597
Ta4Hf2S3C3,0.08927031
Cr4Lu2Ga3N3,0.08928019
Zr4Y2Zn3C3,0.08930185
Sc4Hf2Ga3C3,0.08930254
Mo4Sc2Co3C3,0.08932016
Y4Y2Zn3C3,0.0893606
Nb4Zr2Cu3C3,0.089797854
Ti4V2Si3N3,0.08994454
Nb4Ti2Bi3C3,0.09004586
V4Hf2Cd3N3,0.09007621
Mn4Mo2Fe3N3,0.09008184
Ti4Zr2P3C3,0.09009919
Hf4Mo2Si3C3,0.09010913
V4Cr2Ge3N3,0.09014588
Y4Zr2S3N3,0.090183266
Nb4W2As3C3,0.090204574
V4Zr2As3C3,0.090235315
Ta4Cr2Ge3C3,0.090298064
Hf4Nb2Al3N3,0.09031703
Mn4Ti2Co3C3,0.09038202
Cr4W2Fe3N3,0.09046004
Hf4V2Si3C3,0.09048842
Zr4Sc2Zn3N3,0.09049726
Sc4Nb2Pb3N3,0.09058135
Sc4Mn2Au3C3,0.090595044
Y4Hf2Sn3C3,0.09061507
Hf4Lu2Cd3C3,0.09067977
Ta4V2S3C3,0.09072279
Ta4V2Cd3C3,0.09073201
Nb4Y2Sn3C3,0.090759166
Lu4Zr2Ga3N3,0.0907787
V4Lu2In3N3,0.090809084
Zr4Ti2P3N3,0.09083131
Ti4Zr2Fe3N3,0.09088055
V4Hf2Fe3C3,0.0909034
W4Sc2Ni3C3,0.090915255
Ta4Ti2Au3N3,0.09095316
V4Mn2Ga3N3,0.09098647
Lu4Zr2Cd3C3,0.09114989
Zr4Mo2Tl3C3,0.09120056
Cr4W2Zn3C3,0.09120759
Mn4W2Zn3C3,0.09120853
V4Ti2P3N3,0.09122026
Nb4Zr2Co3C3,0.09127122
Lu4Sc2Si3C3,0.091291614
Mn4Hf2Ge3C3,0.0913393
Y4Ta2Sn3C3,0.09142248
Cr4Ta2Fe3C3,0.09143403
Sc4Nb2S3N3,0.09144716
Y4Sc2Au3C3,0.09144724
V4Y2Ge3N3,0.09145328
Ti4Lu2Cu3C3,0.091497116
Ti4Zr2Fe3C3,0.0915248
Mn4Hf2Au3C3,0.09154781
Mn4Y2Co3C3,0.09166059
Ti4W2Cd3C3,0.09168609
Ta4Mo2As3C3,0.09194029
V4Lu2Ge3C3,0.091988996
Ti4Zr2As3N3,0.09214813
Ti4Ta2Sn3N3,0.09220911
Nb4Zr2Ni3C3,0.092255145
Y4Ti2In3N3,0.09229545
Y4Zr2Tl3C3,0.09231162
Hf4Ti2Ge3N3,0.092503205
Mn4Lu2Au3C3,0.09250911
Mo4Y2Au3C3,0.09257435
Sc4Mn2Al3C3,0.09257865
Mo4V2Sn3C3,0.09264554
Y4Y2Au3C3,0.09270054
Nb4Nb2In3N3,0.09275176
Nb4Sc2Sb3C3,0.09276511
Nb4Sc2Ga3N3,0.092776135
Zr4V2Al3N3,0.09295865
Y4Sc2Ge3C3,0.09301234
Nb4Lu2Pb3C3,0.09306268
Nb4Ta2Sb3C3,0.093066014
W4Ti2Au3C3,0.0933069
V4Mn2P3C3,0.093333595
Mo4Cr2Zn3C3,0.09335825
Hf4Zr2As3N3,0.09342422
Hf4Ta2Al3N3,0.09355044
Ta4Nb2Sb3C3,0.09357599
Ta4Cr2P3C3,0.09357914
Mo4Y2Sn3C3,0.09362965
Ti4Nb2Tl3N3,0.093675524
Nb4Ti2Au3N3,0.09374085
Mn4Mo2In3C3,0.09376038
V4Y2Si3N3,0.09376773
Zr4Y2Al3C3,0.093848296
Nb4Zr2Sn3N3,0.093907125
Lu4V2Cd3C3,0.093943305
Hf4V2In3N3,0.09396985
Lu4Zr2Bi3C3,0.09397145
Sc4Zr2Ge3N3,0.09399378
Ti4V2Bi3C3,0.09402355
Lu4Ti2Sn3N3,0.09403208
Nb4Hf2Si3C3,0.09405494
Ti4Hf2Fe3N3,0.09405547
Sc4Sc2Al3N3,0.09411887
Cr4Ti2Ge3N3,0.09413353
Hf4Y2Tl3C3,0.09418203
Zr4Ta2Au3N3,0.09421526
Sc4Y2Si3C3,0.09434715
Zr4Lu2Zn3C3,0.09436993
Cr4Nb2Co3C3,0.094398454
Nb4Cr2S3C3,0.09443829
Mn4Mn2In3C3,0.09443916
Lu4V2Si3C3,0.09445225
Cr4W2Ge3C3,0.09447068
Mn4Nb2Ga3N3,0.09451526
Zr4Ta2Al3N3,0.09455767
Cr4Ta2Zn3N3,0.094746746
Lu4Lu2Zn3C3,0.09483557
Mo4Nb2Sn3C3,0.09486835
Cr4Hf2Au3C3,0.09490035
Y4Ta2Cu3C3,0.09495744
Ta4Sc2Ni3C3,0.09495786
Cr4Hf2As3C3,0.09496328
Cr4Ti2Sn3C3,0.095007025
Hf4Hf2As3N3,0.09502161
Y4Nb2Ge3C3,0.09505722
Cr4Sc2Zn3N3,0.095063776
Mo4Mo2In3C3,0.095085
Hf4Cr2Ga3C3,0.09508597
Mn4Hf2Ni3C3,0.09515541
Lu4Y2Sn3N3,0.09523047
Ti4Y2Cu3C3,0.09524876
Nb4Ta2Tl3C3,0.095263176
V4Ti2S3N3,0.09528628
Nb4Y2Au3N3,0.09533514
Ta4W2Ge3C3,0.09545293
Ta4Lu2Sn3C3,0.09545711
Ti4Lu2Pb3N3,0.09554193
Nb4Sc2As3C3,0.09555867
Sc4Y2Cu3N3,0.09559178
V4Hf2Ni3N3,0.09561086
Ti4Sc2Sb3C3,0.095648274
Lu4Sc2Ga3N3,0.09566106
Sc4Zr2Zn3C3,0.09572498
Ti4Y2Co3N3,0.095746025
Lu4Ti2Si3C3,0.09579496
Sc4Ta2Bi3C3,0.0958059
Lu4Cr2Cd3C3,0.09589341
Sc4Y2S3N3,0.09595778
Hf4Y2Sn3N3,0.09597215
Cr4W2Fe3C3,0.0960336
Mo4Ta2In3C3,0.09608768
Ta4Hf2Sb3C3,0.09610886
V4Hf2Co3N3,0.09611084
Y4Zr2S3C3,0.09617493
Ti4Sc2Cu3C3,0.09627785
Mn4Cr2In3C3,0.09639762
Lu4Sc2Zn3C3,0.096398495
Hf4Zr2S3N3,0.09640049
Nb4Hf2Bi3C3,0.09640563
Ti4Sc2Bi3C3,0.09643896
Hf4Mo2Sb3C3,0.09646674
Zr4Ti2Au3N3,0.09659158
Zr4Y2Ge3N3,0.09659874
Cr4Cr2Si3C3,0.09662605
V4Cr2Al3N3,0.09662985
Sc4Ta2Al3N3,0.09663888
Hf4Nb2Au3N3,0.09666873
Cr4Y2Zn3N3,0.09680604
Lu4Nb2Ga3N3,0.09686644
Cr4V2P3C3,0.09698284
Mn4Ta2Co3C3,0.09700636
V4Ta2Zn3N3,0.09705461
V4Mo2Cd3C3,0.09707863
Ta4Y2Al3N3,0.0971342
Y4W2Tl3C3,0.09717212
W4Nb2Ga3C3,0.09720556
Lu4Ti2Ga3N3,0.097243905
Nb4V2Au3N3,0.09732392
Nb4Sc2Co3C3,0.09732922
W4Zr2Ni3C3,0.09736722
V4Nb2Cu3N3,0.09736903
Ti4Sc2Au3N3,0.09737721
V4Hf2P3C3,0.09742928
Y4Sc2In3N3,0.09746856
Hf4Nb2Cd3N3,0.097507335
Nb4Mn2Al3C3,0.097517535
Ti4Nb2As3N3,0.09752429
Lu4Ta2In3N3,0.09752901
Zr4Cr2Ga3C3,0.09753725
Ta4Ti2Tl3C3,0.09760772
Ta4Y2Ga3N3,0.0976739
Mn4Zr2In3C3,0.09768299
Lu4Ta2Ga3N3,0.09775167
Mo4Y2Si3C3,0.097765155
Y4Lu2In3N3,0.09777123
W4Zr2Au3C3,0.09777731
V4Y2Si3C3,0.09784225
Nb4Ta2Ga3N3,0.09786389
Ti4Cr2Sb3C3,0.09788089
Sc4Lu2Au3C3,0.09789018
Mo4Sc2Pb3C3,0.09790194
W4Hf2Zn3C3,0.09793705
V4Zr2As3N3,0.097945854
V4Sc2Si3N3,0.09797094
V4W2Zn3C3,0.09799252
Ti4Ta2Ni3N3,0.09802044
Zr4Hf2P3N3,0.098065145
Zr4Nb2Zn3N3,0.098088294
Hf4Ta2Bi3C3,0.09816414
Nb4Sc2P3C3,0.09823426
Ta4Nb2Ga3N3,0.0982755
Zr4Lu2S3N3,0.09827659
Nb4Mo2Cd3C3,0.09833942
Hf4Y2Pb3C3,0.09843763
Mo4Mn2Zn3C3,0.09850537
Cr4Mo2Si3C3,0.098622866
Cr4Mo2Zn3N3,0.098642625
Zr4V2Pb3C3,0.09873429
Ti4Cr2Ga3N3,0.098762326
Zr4Ti2S3N3,0.09878499
W4Zr2Ge3C3,0.098785
V4Ti2Co3C3,0.09878604
Lu4Lu2S3N3,0.09885312
Sc4Hf2Cd3C3,0.09886627
Mo4Sc2Au3C3,0.09888923
Ti4Nb2Co3N3,0.09900643
Ti4Mn2In3C3,0.09910443
Ta4Y2Zn3N3,0.09917251
Ta4Mo2In3C3,0.09922616
V4Lu2Tl3C3,0.099240586
Nb4Mn2Zn3C3,0.09924786
Mn4Hf2Zn3N3,0.09928791
Zr4Ti2P3C3,0.09931394
Mn4Nb2Co3C3,0.099349506
Sc4Ti2Sb3C3,0.09935871
Hf4Hf2S3N3,0.09940806
Zr4W2Cd3C3,0.09949052
Ta4Mo2Zn3C3,0.09952657
Zr4Hf2P3C3,0.09955264
Hf4W2Sb3C3,0.099618234
V4V2P3N3,0.099629246
Nb4Y2Ge3N3,0.099650696
Mn4Lu2Si3C3,0.09967364
Hf4Zr2P3N3,0.09979389
Nb4Sc2Sn3N3,0.099865176
Sc4Sc2Zn3N3,0.099908784
Sc4Zr2Si3C3,0.099966355
V4Lu2Sn3C3,0.10001263
Cr4Ti2Cd3C3,0.10005281
Ti4Lu2Sn3N3,0.10008789
Lu4Y2Zn3C3,0.10013398
Cr4Ti2Fe3C3,0.1001772
Ta4Sc2Fe3C3,0.10021573
Y4Sc2S3N3,0.100220315
Zr4V2Au3C3,0.100275815
Sc4W2Cu3C3,0.100314215
Sc4Mn2Sn3C3,0.10031915
Hf4Sc2Cd3C3,0.10032916
Cr4Ta2Si3C3,0.100333974
Zr4Mo2Si3C3,0.10034531
Sc4Hf2Si3C3,0.10036576
Zr4Zr2P3C3,0.10040029
Cr4Zr2Sn3C3,0.10048827
V4Y2Ni3N3,0.10052351
Ti4Cr2Sn3C3,0.10072893
Mo4Zr2Ni3C3,0.10073339
Zr4Nb2Au3N3,0.100804165
Mn4Nb2Fe3C3,0.10094461
Sc4V2Sn3N3,0.10109045
Cr4Ti2Co3C3,0.10110942
Lu4Nb2Pb3N3,0.10112517
Ta4Zr2Tl3C3,0.10113279
Ti4Mn2As3C3,0.101174265
Y4Ti2Tl3C3,0.10120803
Sc4Sc2Al3C3,0.101244375
Mn4Ti2In3C3,0.10130502
Zr4Zr2P3N3,0.10144244
Mo4Sc2Ni3C3,0.10149519
Mn4V2Zn3N3,0.10160885
Cr4Zr2Cd3C3,0.10161949
Hf4Sc2Bi3C3,0.101621225
W4Ta2Al3C3,0.10164629
Hf4Y2Zn3C3,0.101649046
Lu4Ti2Al3C3,0.101715386
Sc4Y2Cd3N3,0.10175366
V4V2As3N3,0.101868466
Cr4Ta2As3C3,0.1018863
Zr4Nb2Tl3N3,0.10193036
Ta4Zr2Ga3N3,0.10199757
Lu4Cr2Ge3C3,0.1019987
Lu4Lu2Al3C3,0.102046944
Cr4Hf2Cu3C3,0.10216716
Mo4V2As3C3,0.10217396
Sc4Y2Zn3N3,0.10226527
Ti4Ti2P3N3,0.10226715
Hf4Nb2Zn3N3,0.10229357
Nb4W2In3C3,0.10232326
Y4Zr2Al3N3,0.102325805
V4Cr2In3C3,0.10247328
Ta4Ta2Ga3N3,0.1025086
Cr4Zr2In3C3,0.10251195
Ti4Cr2Ge3N3,0.10251958
Nb4Zr2Fe3C3,0.10259545
V4Nb2Ni3N3,0.102627784
Mn4Mn2Zn3N3,0.10269117
Y4Ti2Ga3N3,0.10269629
Y4Mo2Pb3C3,0.102713436
Cr4Sc2Au3C3,0.10275038
Ta4Y2Si3C3,0.10283954
V4Ti2Ni3C3,0.10284032
Mn4V2Ga3N3,0.102859035
W4Lu2Cu3C3,0.10288511
Hf4Hf2P3N3,0.10289098
Mn4Ta2Fe3C3,0.10296995
Ti4Ti2Co3N3,0.102975205
Ti4Ta2S3N3,0.10310753
Nb4Ti2Sn3N3,0.10314136
Nb4Y2Al3N3,0.10330433
Y4Hf2Tl3C3,0.10335937
Y4Y2S3N3,0.103378
W4Zr2Co3C3,0.103512876
Lu4Mn2Cd3C3,0.103675954
Zr4Mo2Sb3C3,0.103727296
Ta4W2As3C3,0.103861846
V4Y2Cu3N3,0.10402339
Nb4W2Zn3C3,0.10404568
Cr4Nb2Co3N3,0.104052484
Sc4Ta2Cu3C3,0.10406104
Mo4Zr2Cu3C3,0.10408587
Ti4Mn2P3C3,0.10416933
V4Lu2Cu3N3,0.10418381
Ti4Mn2Au3C3,0.10420385
Sc4Ta2Sb3C3,0.10422312
Sc4Hf2Sb3C3,0.104321815
W4Cr2Al3C3,0.104494765
Nb4Sc2Fe3C3,0.10449943
Mo4Zr2Si3C3,0.10452572
Zr4Hf2As3N3,0.10454882
Ti4Zr2P3N3,0.1045641
Ta4Hf2Tl3C3,0.1046892
Hf4Lu2Ge3C3,0.104720175
Mo4Zr2Fe3C3,0.10476896
Zr4V2Zn3N3,0.104811005
Y4Ti2In3C3,0.10481137
Cr4Lu2Au3C3,0.10489595
V4Lu2Cd3N3,0.10497431
V4Hf2As3N3,0.105019
Nb4V2In3N3,0.10505356
Ta4V2Sn3C3,0.105081886
Ta4W2P3C3,0.105203256
Zr4V2As3C3,0.10528751
Ti4Hf2Sb3N3,0.10534929
Ti4Y2Si3C3,0.105363466
Hf4Ta2In3N3,0.105373874
Mo4V2Au3C3,0.10539155
Zr4Lu2Bi3C3,0.10541373
Lu4Ta2Tl3N3,0.10545352
Ti4Hf2Co3C3,0.1054795
Cr4V2Zn3N3,0.10550091
Nb4Lu2Zn3N3,0.10550163
Nb4Nb2Au3N3,0.10553233
Nb4Cr2Zn3C3,0.10554623
Hf4Sc2Zn3C3,0.10560249
Nb4Mo2Si3C3,0.10562185
Zr4Zr2Au3N3,0.10568028
Lu4Zr2S3N3,0.105741665
Nb4Sc2Ni3C3,0.105779156
Nb4Y2Zn3N3,0.105808675
Lu4Cr2In3C3,0.105863325
Y4Hf2In3C3,0.105863445
Lu4Mn2Zn3C3,0.105890274
Mo4Y2Tl3C3,0.10596031
Hf4Y2Cd3C3,0.10613013
Cr4Mo2Fe3C3,0.10616016
Sc4Sc2As3C3,0.106182195
Ti4Cr2Cd3C3,0.10624624
W4Sc2Cd3C3,0.10626531
Y4W2Sn3C3,0.10627787
W4Y2Cd3C3,0.106278114
Sc4Ti2Ge3N3,0.10628689
Ti4Nb2P3N3,0.106312074
Sc4Ti2S3N3,0.10653816
Sc4Cr2Tl3C3,0.10659963
Nb4Mn2As3C3,0.10660793
Cr4Ti2Ni3C3,0.10669434
Zr4Ti2As3N3,0.10675863
Hf4W2Au3C3,0.10676277
Y4Zr2Pb3C3,0.10680781
Sc4Y2Ga3C3,0.10685072
Nb4Cr2In3C3,0.10689201
Cr4Y2Ge3C3,0.10689395
Hf4Nb2Tl3N3,0.10691616
Y4Zr2Cd3N3,0.10697011
V4Nb2Co3N3,0.10697398
Hf4W2Si3C3,0.10705018
Mn4Ti2Fe3C3,0.107109345
V4Sc2S3N3,0.107168466
Hf4W2Cd3C3,0.107199095
Mo4Ta2Au3C3,0.107259504
V4W2P3C3,0.107333966
Lu4Hf2Cd3C3,0.10736757
Mn4Nb2Ni3C3,0.107399695
Ti4Mn2Sn3C3,0.10747976
Hf4Lu2S3N3,0.10749469
Y4Hf2Pb3C3,0.10752226
Hf4Y2Ge3N3,0.10753855
Sc4V2Zn3N3,0.10755406
Ti4Lu2Co3N3,0.10768392
W4Y2Si3C3,0.10771374
Y4Lu2Sn3N3,0.10771479
Nb4Y2Cd3N3,0.1077311
Hf4Cr2As3C3,0.10780096
Mn4Y2Au3C3,0.10782932
Hf4Nb2Sn3N3,0.10786697
V4Nb2Si3N3,0.10793537
Mn4Ti2Si3C3,0.1079398
Mo4Zr2Co3C3,0.10797582
Hf4Y2Sn3C3,0.108074196
W4Lu2Fe3C3,0.10813818
Y4Mo2Cu3C3,0.10815285
Sc4Mo2Bi3C3,0.10823872
Hf4Y2Ni3N3,0.1083065
Hf4V2Sb3C3,0.10830892
Mo4Mn2Sn3C3,0.1083899
Y4Hf2Ge3C3,0.10845568
Nb4Lu2Ge3N3,0.10849643
Zr4Y2S3N3,0.10854648
Mn4Ta2Ge3C3,0.108567774
Hf4Sc2Sb3C3,0.10869183
Lu4Sc2Ge3N3,0.10875136
V4Zr2Sn3N3,0.10892535
Y4Ta2Au3C3,0.10898034
Mn4Mo2Ga3N3,0.10898567
Cr4Zr2Au3N3,0.10901018
Hf4Hf2P3C3,0.10911095
Mo4Cr2Sn3C3,0.10917773
V4Zr2Tl3C3,0.1092964
Cr4Hf2Au3N3,0.10935934
Hf4V2Al3N3,0.10944865
Nb4Lu2As3C3,0.10945154
Mo4Cr2In3C3,0.10963597
Sc4Zr2Zn3N3,0.10972553
Sc4Cr2Cu3C3,0.10979786
Sc4Nb2Al3N3,0.10985056
Mn4Nb2Au3C3,0.10986116
W4V2Ga3C3,0.10989827
Zr4Nb2P3N3,0.10997828
Y4Hf2Ga3C3,0.11005949
Lu4Hf2Ge3N3,0.110142134
Ta4Sc2P3C3,0.110212676
Nb4Cr2Ga3N3,0.11025363
Ti4Zr2Sb3N3,0.11028541
Zr4Nb2As3N3,0.110369235
Lu4Cr2Al3C3,0.110372
Y4Ta2Ge3N3,0.11045787
Ti4Ta2Cu3C3,0.11052703
Ta4Hf2Co3C3,0.11058585
Lu4Zr2Al3C3,0.11067063
Nb4Zr2Zn3N3,0.11069394
V4Cr2Zn3N3,0.11080867
V4Lu2Si3N3,0.11086277
Hf4Ta2Au3N3,0.11102126
Sc4Nb2Au3C3,0.11103462
V4Sc2Sn3N3,0.11109409
Zr4V2Sb3C3,0.11114285
V4Sc2Cu3N3,0.11115476
Zr4Ta2Cd3N3,0.11116553
Sc4W2Au3C3,0.111191586
Mo4Sc2Fe3C3,0.111200914
Nb4Zr2Ge3N3,0.11120798
Cr4Nb2Cu3C3,0.11132533
Cr4Mn2As3C3,0.11139994
Cr4Y2Au3C3,0.11140619
Sc4Y2S3C3,0.11143344
Ta4Nb2Cu3C3,0.11147101
Nb4V2Ge3N3,0.11173999
Cr4Y2Au3N3,0.11175166
Sc4Y2Ge3N3,0.111789815
Sc4W2Sb3C3,0.11182313
Lu4V2Al3C3,0.111965925
V4Ti2Ni3N3,0.11204496
Ta4Ta2Si3C3,0.112046644
Mn4Zr2Si3C3,0.11208677
Mn4Ti2Ni3C3,0.11223693
Lu4Y2S3C3,0.1126276
Y4Cr2Zn3C3,0.11264558
Nb4Lu2Cd3N3,0.112709135
Sc4Sc2Si3C3,0.11272358
Nb4Nb2Ge3N3,0.112774715
V4Y2Cd3N3,0.11277707
V4Zr2P3C3,0.11278105
Hf4Lu2Ni3N3,0.11279316
Zr4Ta2As3N3,0.112887345
Y4Hf2Al3N3,0.11294609
Mo4Ta2As3C3,0.11298715
Lu4Sc2Al3C3,0.113079615
V4Ta2Au3N3,0.11308917
Sc4Cr2Au3C3,0.113105744
Sc4Lu2Ni3C3,0.11312518
Cr4Mo2As3C3,0.11317147
Y4Sc2Ga3N3,0.113210864
Ta4Lu2Zn3N3,0.11328486
Mo4Mn2In3C3,0.113310896
Mn4Ta2Ni3C3,0.113341466
Hf4V2Pb3C3,0.11336669
Mn4V2Ge3N3,0.1134224
V4Sc2Ni3N3,0.11346766
V4Lu2Au3N3,0.113571115
Lu4Mo2Cu3C3,0.11372663
Lu4Hf2Si3C3,0.11376041
V4Mn2S3C3,0.113806725
Cr4Mn2Si3C3,0.11384018
Nb4Lu2Au3N3,0.11395955
Y4Y2Ga3C3,0.114024065
Mo4Sc2As3C3,0.11409158
Mn4Cr2Au3N3,0.11409625
Lu4Nb2Sn3N3,0.11415347
Lu4Hf2Al3N3,0.11418094
Cr4Lu2Zn3N3,0.11424348
Sc4Ti2Al3C3,0.11429266
V4V2Tl3C3,0.114471436
Zr4Ta2Ge3N3,0.11447905
W4Sc2Fe3C3,0.11448487
Hf4Ti2P3C3,0.114528164
W4Lu2Ge3C3,0.1146005
Cr4Ta2Co3C3,0.11462738
Hf4Zr2P3C3,0.11462758
Ti4Mo2Ge3N3,0.11466566
Zr4Y2Cu3N3,0.11469047
Lu4Y2Au3C3,0.11484675
Ta4Mn2Al3C3,0.11486276
Ta4W2Au3C3,0.11488585
Ta4Y2Ge3C3,0.11495865
V4Mn2In3C3,0.114976756
Cr4Mo2Ni3C3,0.11501719
Cr4Ti2Cu3C3,0.115043364
Ti4Nb2Ni3N3,0.11506321
Zr4W2Sb3C3,0.11513111
Ta4V2Ga3N3,0.11515449
Sc4V2Al3N3,0.11523781
Lu4Sc2Cd3N3,0.11524902
Sc4V2Tl3N3,0.11525002
V4W2Au3C3,0.1152806
Ti4Nb2Cu3N3,0.1154417
Mo4Cr2As3C3,0.11547667
Zr4Ta2Sn3N3,0.11552249
Y4Nb2Sn3N3,0.11554098
Ta4Hf2Au3N3,0.115549505
Y4V2In3C3,0.115554735
V4Sc2Au3N3,0.11560352
Hf4Ti2Cu3N3,0.11564194
V4Nb2Sb3C3,0.115788266
Ta4W2Zn3C3,0.11588053
Mn4Mo2Ni3N3,0.11588835
Cr4Nb2Ge3N3,0.11593303
Y4Hf2Sn3N3,0.11595413
Mo4Ta2Sn3C3,0.11600373
Mn4Nb2Cd3C3,0.11604043
Mn4Hf2In3C3,0.11615179
Nb4Mn2In3C3,0.116196975
V4Ta2Ge3N3,0.11620402
W4Y2In3C3,0.11623795
Y4Zr2Ga3C3,0.11623801
Lu4Zr2Ge3N3,0.11630483
Ti4Ta2P3N3,0.11630912
V4Ta2Ni3C3,0.1163339
Nb4Sc2S3N3,0.11635563
Cr4Ti2Zn3N3,0.1163784
Mn4Mn2As3C3,0.1163923
Ta4Lu2Ga3N3,0.116405375
Lu4Lu2Si3C3,0.11649939
V4Cr2Sn3C3,0.11651447
Hf4Y2Pb3N3,0.116661735
Sc4Y2Co3C3,0.11668205
Y4Zr2Sn3N3,0.11674028
Cr4Ta2P3C3,0.11674519
V4Mn2Si3C3,0.11679678
Nb4Hf2Cu3C3,0.11685235
Mn4V2In3C3,0.116884306
V4V2S3N3,0.11688846
Nb4V2Tl3C3,0.11690276
Lu4Y2Al3C3,0.11706189
Hf4Ta2Cu3C3,0.11706257
Hf4Y2Au3N3,0.117239594
Ti4V2Tl3N3,0.117270164
Mo4Sc2Tl3C3,0.117461786
Nb4Hf2Au3N3,0.1174875
V4Ta2In3N3,0.117542624
Ti4Mn2Cd3C3,0.117614724
V4Mn2Zn3N3,0.117652215
Hf4Ta2Zn3N3,0.117673464
Mn4Nb2In3C3,0.11769772
Nb4Mn2Au3C3,0.11772241
Mo4Mn2Zn3N3,0.11773868
Ta4Ti2Al3N3,0.11774637
Y4Cr2Ga3C3,0.11777485
Ta4Mn2Ge3C3,0.11781081
Hf4V2Sn3N3,0.11782427
Mn4Mo2Sn3C3,0.117891096
Nb4Hf2Sn3N3,0.11794719
Mn4Hf2Cu3C3,0.11805328
Lu4Zr2Si3C3,0.118103
Mo4Mo2As3C3,0.11812464
Nb4W2Sn3C3,0.11815715
Ti4Y2Ge3C3,0.11816475
Zr4Ta2Zn3N3,0.118284725
Hf4Ta2Cd3N3,0.11830176
V4V2Cu3C3,0.11839254
Hf4Mn2Ga3C3,0.11840003
V4Zr2S3C3,0.11849173
V4Zr2S3N3,0.118673906
Nb4Hf2Ge3N3,0.11882903
Cr4Zr2As3C3,0.1188349
V4Ta2Cu3C3,0.118894964
Ti4V2Cu3N3,0.1189157
Sc4Nb2Cd3N3,0.11908142
Zr4V2Au3N3,0.11908657
Ti4Ti2Cu3C3,0.11910894
Mn4Ta2Au3C3,0.11912022
Ti4V2Cu3C3,0.119128354
Cr4Mo2Au3C3,0.11915039
Sc4V2S3N3,0.119221896
Zr4V2Sn3N3,0.11929066
Ti4Y2Sn3C3,0.11930248
Y4Y2In3N3,0.11933378
Sc4Ta2S3N3,0.11935176
Mo4Hf2Au3C3,0.11935555
Sc4Sc2S3N3,0.11936934
Ti4Lu2S3N3,0.11937554
Mo4W2Zn3C3,0.11938719
Ti4Ta2Ge3N3,0.1194042
Zr4Zr2As3N3,0.119505875
Lu4Nb2Al3N3,0.119594164
V4Ti2Co3N3,0.1197014
Zr4Mn2Ga3C3,0.11970578
Ta4Nb2Tl3C3,0.119719476
Ta4Zr2Sb3C3,0.1197295
Sc4Hf2Zn3N3,0.119795606
W4Cr2Ga3C3,0.119808406
Hf4V2As3N3,0.11986643
Lu4W2Tl3C3,0.119896375
Mo4Lu2Au3N3,0.11992431
Cr4Cr2Au3C3,0.11999539
Lu4Lu2Ga3N3,0.120033085
W4Y2Au3C3,0.1200493
V4Mo2S3C3,0.120100886
Y4V2Zn3C3,0.12010646
Lu4Y2Si3C3,0.12012215
V4Y2In3N3,0.12014073
Nb4Nb2Al3N3,0.12015941
V4Cr2Au3N3,0.1201684
Hf4V2Au3N3,0.120213576
Ta4Zr2Al3N3,0.12025964
W4Sc2Cu3C3,0.12034615
V4Mn2Sn3C3,0.12037712
Mo4Nb2Si3C3,0.12043541
Y4Mn2Zn3C3,0.120468795
Nb4Zr2Cd3N3,0.12057073
Ta4Mo2Sn3C3,0.12075536
Mn4Cr2As3C3,0.12076271
Cr4Mo2Sn3C3,0.12082722
V4Ta2Tl3C3,0.12098739
V4Sc2Co3N3,0.12106913
Sc4Ta2Cd3N3,0.121090785
Y4Sc2Sn3N3,0.12112412
Lu4Cr2Si3C3,0.121229
Ta4Hf2Ga3N3,0.12138502
Y4Ti2Pb3N3,0.12139956
V4Nb2Tl3C3,0.12140156
Y4W2Cu3C3,0.121435724
Cr4Ta2Cu3C3,0.1215723
Sc4Hf2Al3C3,0.12174719
Ta4Ti2Zn3N3,0.12175969
V4Hf2Sn3N3,0.121878125
Ti4Cr2Zn3N3,0.12187985
Zr4Y2Au3N3,0.121936955
Mn4W2Fe3N3,0.122007295
Mn4Ti2Cu3C3,0.12232806
Nb4Hf2Zn3N3,0.12252714
Cr4V2In3C3,0.12255205
Y4Ta2Al3N3,0.122597925
Hf4V2Bi3C3,0.12264888
Mn4Mn2Si3C3,0.12264947
Mo4Cr2Au3C3,0.122665204
Zr4Sc2Bi3N3,0.12269393
V4V2Cu3N3,0.12273058
V4Nb2As3N3,0.122758545
W4Hf2Co3C3,0.12276667
W4Lu2Cd3C3,0.12282835
W4Ti2In3C3,0.12289022
Mo4Y2Ga3N3,0.12291529
Mo4Hf2P3C3,0.122920886
Y4Ta2Ga3C3,0.123057194
V4Cr2Au3C3,0.123077095
Nb4Hf2Pb3C3,0.123151295
Hf4Hf2Cu3C3,0.12322099
Cr4Mn2In3C3,0.12323379
Lu4Y2Al3N3,0.123243496
Sc4Sc2Cu3C3,0.12328056
Lu4Sc2Al3N3,0.12330294
Mn4Cr2Cd3C3,0.12333565
Y4Nb2Pb3N3,0.12336418
Cr4Lu2Au3N3,0.12342644
Mn4Mo2Co3C3,0.123429365
Ti4Lu2Ge3N3,0.12343842
V4Y2Ge3C3,0.123449266
Nb4Ti2Ge3N3,0.123479895
Ta4Sc2As3C3,0.123557344
Zr4V2P3C3,0.123668276
W4Zr2Si3C3,0.12370317
Mo4Ti2Sb3C3,0.123722546
Zr4Nb2S3N3,0.12388275
Mn4Mo2Au3C3,0.123959064
Ta4Sc2Ga3N3,0.12396092
V4Y2Co3N3,0.12398359
Zr4Mn2S3C3,0.12398611
Mn4Mo2Cd3C3,0.12399993
Nb4Cr2Si3C3,0.124011785
Cr4Y2Ge3N3,0.12401928
Nb4Zr2Au3N3,0.12402428
Ti4Y2Si3N3,0.124056846
Mo4Ti2Si3C3,0.12406504
Zr4Zr2Bi3N3,0.124101534
Cr4Mn2Cd3N3,0.12410308
Zr4Nb2Ge3N3,0.12417938
W4Ta2Ga3C3,0.12418359
Y4Y2Si3C3,0.12419274
V4Lu2Ni3N3,0.12423903
Sc4Lu2As3C3,0.124313824
Lu4W2Au3C3,0.12432613
Ta4Ta2Tl3C3,0.124329224
Ti4Ti2Bi3N3,0.124374
V4Hf2Sb3C3,0.12438554
Mn4Mn2Au3C3,0.12442909
Y4Hf2S3C3,0.12453149