formula,Ehull
Cr4Sc2Ga3C3,-0.08344259
Mn4Sc2Ga3C3,-0.07381789
Cr4Sc2Al3C3,-0.07252378
Cr4Lu2Al3C3,-0.06734573
Mn4Sc2Al3C3,-0.06313418
V4Sc2Ga3C3,-0.061934337
Nb4Lu2Al3C3,-0.059666347
Mo4Sc2Ga3C3,-0.058524083
Mo4Lu2Al3C3,-0.055501208
Mn4Sc2Zn3C3,-0.050661303
Cr4Sc2Zn3C3,-0.050115928
Mo4Sc2Al3C3,-0.049922083
Cr4Zr2Al3C3,-0.045303065
Mo4Y2Al3C3,-0.04339478
Lu4W2Ga3C3,-0.042194787
Lu4Mo2Ga3C3,-0.041508887
Mo4Lu2Ga3C3,-0.040960614
V4Zr2Al3C3,-0.040669523
Ti4W2Ga3C3,-0.039832637
Sc4Mo2In3C3,-0.03966672
Sc4W2Ga3C3,-0.038171455
Nb4Zr2Al3C3,-0.037892073
Nb4Sc2Ga3C3,-0.03453134
Cr4Y2Al3C3,-0.034393925
Mo4Sc2Zn3C3,-0.03350894
Mo4Y2Ga3C3,-0.03259588
W4Zr2Al3C3,-0.032537203
Cr4Lu2Ga3C3,-0.031938624
V4Ti2Ge3C3,-0.03192533
V4Lu2Al3C3,-0.031486563
Ti4Ti2S3C3,-0.031240564
Nb4Zr2Ga3C3,-0.031203467
W4Lu2Al3C3,-0.030145317
Nb4Sc2Al3C3,-0.029574744
Sc4Mo2Ga3C3,-0.029480716
Ti4W2P3C3,-0.028181266
Mn4Lu2Ga3C3,-0.028072523
V4Sc2Al3C3,-0.027792566
Cr4Zr2Ga3C3,-0.027654113
Mn4Lu2Zn3C3,-0.027418623
Ti4Ti2Sn3C3,-0.027252773
Ti4V2S3C3,-0.026860442
Ta4Lu2Al3C3,-0.026354607
Sc4Sc2Pb3C3,-0.026144808
Sc4Mo2Sn3C3,-0.025916863
Mo4Zr2Ga3C3,-0.025543971
Mn4Mn2Ga3C3,-0.025485614
Ti4Ta2Al3C3,-0.02434211
Nb4Lu2Ga3C3,-0.023824189
Nb4Hf2Ga3C3,-0.023546161
Ta4Sc2Ga3C3,-0.022736028
Mn4Zr2Ga3C3,-0.02241819
Lu4Sc2Pb3C3,-0.021354636
W4Y2Al3C3,-0.021301862
Nb4Ti2Sn3C3,-0.020771215
Cr4Y2Ga3C3,-0.020766258
Ti4Ti2Al3C3,-0.020347578
Ti4Nb2In3C3,-0.019985681
Mn4Lu2Al3C3,-0.019739639
Ti4W2Al3C3,-0.018780505
Cr4Nb2Al3C3,-0.018773261
Nb4Sc2In3C3,-0.01860014
Ta4Sc2Al3C3,-0.018355023
Ti4Ta2Ge3C3,-0.018054757
Sc4W2Al3C3,-0.018013556
Ti4Zr2Al3C3,-0.017837182
Ta4Ti2Ga3C3,-0.017823996
Ti4Hf2Ga3N3,-0.017440595
Sc4W2Ge3C3,-0.017334303
Ti4Ti2In3C3,-0.017232323
Ti4Mo2Ga3C3,-0.017168801
Ti4Hf2Al3C3,-0.016991211
Ti4Nb2S3C3,-0.01676086
Cr4Lu2Zn3C3,-0.016458146
Ti4Zr2In3C3,-0.015804755
Nb4Lu2Zn3C3,-0.01564816
Ti4Ta2S3C3,-0.015528768
Ti4Ta2Ga3C3,-0.015436656
Lu4Mo2Ge3C3,-0.015401379
V4Sc2Zn3C3,-0.014986598
Nb4Ti2Ga3C3,-0.014908661
Sc4Lu2Pb3C3,-0.014905915
V4Sc2Ga3N3,-0.014717405
Sc4Mo2Al3C3,-0.014532054
Cr4Mn2Al3C3,-0.013854117
Ti4Y2Al3N3,-0.013795688
Ta4Hf2Ga3C3,-0.013756704
V4Zr2Ga3C3,-0.01324189
Ta4Ti2As3C3,-0.012966943
V4Ti2Ga3N3,-0.012682235
Cr4Ti2Ga3C3,-0.012137208
Ti4Ta2In3C3,-0.011907539
Ti4Hf2In3C3,-0.011735823
Cr4Mn2Ga3C3,-0.011710497
Mo4Lu2Zn3C3,-0.011566377
Sc4W2Si3C3,-0.011430423
V4Zr2Ga3N3,-0.011417463
Ti4Ti2Ge3C3,-0.011356342
V4Ti2Al3C3,-0.011342921
Ti4W2As3C3,-0.011244675
Ti4Sc2Ga3C3,-0.011198661
Ti4Nb2Ga3C3,-0.011188586
Ta4Zr2Ga3C3,-0.010899759
Mo4Sc2Ge3C3,-0.010733802
Sc4Mo2Ge3C3,-0.010728848
Ti4Nb2Sn3C3,-0.010724048
Cr4Ti2Al3C3,-0.010601223
Ti4Nb2Al3C3,-0.010324046
Sc4Lu2Sn3C3,-0.010156376
Ti4Nb2As3C3,-0.010146461
Ti4Hf2Zn3N3,-0.009760783
Nb4Hf2In3C3,-0.009758883
V4Hf2Zn3C3,-0.009689566
V4Ti2Ga3C3,-0.009513263
Ta4Lu2Ga3C3,-0.009379089
Sc4Sc2Bi3C3,-0.009300522
Cr4Ti2Ge3C3,-0.009266192
Ti4Sc2Zn3N3,-0.009128222
Ti4V2Ge3C3,-0.009074904
Ti4Sc2Ga3N3,-0.009056471
Sc4Mo2Cd3C3,-0.008852726
Ti4Ti2Pb3C3,-0.008836906
Nb4Lu2In3C3,-0.0088352
Nb4Zr2In3C3,-0.00876343
Lu4W2Al3C3,-0.00872484
V4Sc2Co3C3,-0.008686717
Cr4Cr2Ga3C3,-0.008611359
Ti4Zr2Al3N3,-0.008594433
Ti4Lu2Al3N3,-0.008566112
Ti4Zr2Ga3C3,-0.00854569
Nb4Ti2Ge3C3,-0.008505181
Sc4Sc2Sn3C3,-0.008303342
Nb4Y2Al3C3,-0.008293964
Ti4Nb2Ge3C3,-0.008228688
Mo4Zr2Al3C3,-0.008089208
Sc4Y2Cd3C3,-0.008041267
Nb4Ti2As3C3,-0.007979809
V4Hf2Ga3C3,-0.007813266
Ti4Hf2Al3N3,-0.0076704
Zr4W2Ga3C3,-0.007641588
Hf4Ta2Ga3C3,-0.007573754
Ta4Zr2Al3C3,-0.00753879
Sc4Nb2In3C3,-0.007489356
Sc4Nb2Pb3C3,-0.007401259
Ti4Sc2In3N3,-0.007190608
Nb4Zr2Zn3C3,-0.006823923
Hf4Ta2P3C3,-0.006638268
Zr4Lu2Tl3N3,-0.006504825
Lu4Lu2Pb3C3,-0.006410096
V4Zr2Al3N3,-0.006385711
Ti4Hf2Ga3C3,-0.006069284
Mo4Hf2Ga3C3,-0.00593218
V4Nb2Ge3C3,-0.005795257
Mn4Y2Ga3C3,-0.005532243
V4Ta2Ge3C3,-0.00550731
Ti4Ti2Ga3C3,-0.00542804
Ti4Lu2Ga3N3,-0.005386169
Ti4Mo2P3C3,-0.005331026
Zr4Ta2Ga3C3,-0.005270719
Sc4Mo2Tl3C3,-0.005225054
Cr4Sc2Si3C3,-0.005142322
Sc4Zr2Pb3C3,-0.004803051
Ta4Nb2P3C3,-0.004693714
Ti4V2In3C3,-0.004219578
Zr4Ta2Al3C3,-0.004184713
Nb4Ta2As3C3,-0.004028931
Ti4Ti2Al3N3,-0.003710759
Ti4Zr2Zn3C3,-0.003672966
Nb4Lu2Cd3C3,-0.003665468
V4Ta2Zn3C3,-0.00363118
Cr4Ta2Al3C3,-0.003474131
Ti4Nb2P3C3,-0.00340647
Lu4Mo2Tl3C3,-0.003403975
Ta4Nb2As3C3,-0.003186893
V4Ta2Ga3C3,-0.002933596
V4Ti2Al3N3,-0.002922938
Lu4Mo2In3C3,-0.002867003
Sc4Y2Zn3C3,-0.002721551
Nb4Sc2Sn3C3,-0.002690583
Ta4Ti2Al3C3,-0.002613897
Ti4Ti2Ga3N3,-0.002592877
Nb4Sc2Ge3C3,-0.002453961
Ti4Hf2Cd3N3,-0.002296022
Sc4Nb2Sn3C3,-0.002252589
Ta4Ta2Ga3C3,-0.002186783
V4Y2Al3C3,-0.002148973
W4Sc2Ga3C3,-0.002079309
Ti4Ti2In3N3,-0.001708668
Mo4Sc2Cd3C3,-0.001670364
Zr4Hf2In3N3,-0.001662792
Ta4Ti2Ge3C3,-0.001661226
Ta4Ta2As3C3,-0.001581444
V4Lu2Zn3C3,-0.001531589
Mn4Ti2Ga3C3,-0.001479419
Cr4Sc2Ge3C3,-0.001455676
Nb4Ti2In3C3,-0.001443281
Nb4Ta2Ga3C3,-0.001353558
Lu4Sc2Bi3C3,-0.001313429
Sc4Mo2Zn3C3,-0.001296399
Zr4Mo2Ga3C3,-0.001125069
Nb4Nb2Ga3C3,-0.001085421
Ti4Mo2Ge3C3,-0.001031953
V4Ta2Al3C3,-0.000885554
Ti4Hf2In3N3,-0.00078015
Sc4Sc2Tl3C3,-0.000747056
Mo4Y2Zn3C3,-0.000472624
V4Lu2Ga3C3,-0.000228771
Ti4W2Ge3C3,2.06E-05
Lu4Lu2Sn3C3,0.000264986
Mn4Sc2Ni3C3,0.000495696
V4Nb2Ga3C3,0.000716566
Mo4Ti2Ga3C3,0.000752709
Sc4Ta2Ga3C3,0.000840364
Hf4Nb2As3C3,0.000995308
Ta4Ta2P3C3,0.001025766
Ti4Ta2As3C3,0.00108662
Nb4Nb2Ge3C3,0.001167693
Ta4Ti2P3C3,0.001334023
Nb4Hf2As3C3,0.001335315
Zr4Zr2Sn3C3,0.001450255
Ti4Ti2Zn3N3,0.001593265
Ti4Hf2Ge3C3,0.00159913
Zr4Zr2In3C3,0.001646184
V4Hf2Al3C3,0.001779741
Cr4Hf2Al3C3,0.001940453
Zr4Sc2Pb3C3,0.002000203
Ta4Nb2Ga3C3,0.002095451
Hf4Nb2In3C3,0.002216395
Mn4Zr2Zn3C3,0.00229086
Ti4Zr2In3N3,0.002363488
Nb4Ti2Al3C3,0.002379755
Sc4Ta2Pb3C3,0.002466322
Sc4Lu2Bi3C3,0.002485799
V4Nb2Al3C3,0.00252079
Nb4Zr2Ge3C3,0.002654271
Ti4Zr2Cd3N3,0.002670981
Ti4V2Ga3C3,0.002678171
Zr4Lu2In3N3,0.002699164
Cr4V2Ga3C3,0.002755566
Lu4Mo2Zn3C3,0.00279751
W4Sc2Al3C3,0.002827538
Lu4Y2Pb3C3,0.002849321
Ti4Ti2Sb3C3,0.002958671
V4V2Al3C3,0.002974266
Ta4Nb2Al3C3,0.0031434
Hf4Ta2As3C3,0.00335823
Mn4Sc2Fe3C3,0.003399521
Cr4Cr2Al3C3,0.003400735
Lu4Mo2Cd3C3,0.003403348
V4Ti2As3C3,0.003524484
Hf4Hf2Ga3C3,0.003558989
Cr4V2Al3C3,0.003661987
Ta4Ta2Al3C3,0.003815942
Ti4Zr2Cd3C3,0.003839531
Ti4Hf2Zn3C3,0.003999411
Ta4Hf2Ge3C3,0.00406412
Hf4Nb2Ga3C3,0.004066054
Mn4Sc2Cu3C3,0.004115983
Lu4Sc2Sn3C3,0.0041334
Sc4Mn2Ga3C3,0.004386821
Nb4Ta2P3C3,0.004565862
Hf4Zr2Pb3C3,0.004591975
Zr4Sc2Tl3N3,0.004710017
V4Lu2Fe3C3,0.004810192
Mo4Sc2Sn3C3,0.004810325
Sc4Ta2In3C3,0.004811676
V4Ti2Si3C3,0.004821835
V4Ta2Au3C3,0.004823272
Hf4W2Ga3C3,0.004998925
Nb4V2Ge3C3,0.005058722
Zr4Nb2Sn3C3,0.005166548
Ti4V2Ga3N3,0.005199317
Ti4Sc2Al3N3,0.00539566
Hf4Hf2Tl3C3,0.005788188
Hf4Y2In3N3,0.005791289
V4V2Ge3C3,0.005796897
Ti4Cr2Ga3C3,0.005854579
Mn4Y2Zn3C3,0.005901888
Mo4Lu2Cd3C3,0.00590945
Ti4Zr2Zn3N3,0.00592739
Sc4Cr2Ga3C3,0.005961701
Sc4Zr2S3C3,0.005973851
Cr4Nb2Ga3C3,0.006066919
Sc4Nb2Tl3C3,0.006412605
Ta4Hf2P3C3,0.006443699
Zr4Ti2In3C3,0.006465929
Cr4V2Ge3C3,0.006469941
Hf4Ti2In3N3,0.006560496
Ti4Zr2Sn3C3,0.00660626
Zr4Nb2Al3C3,0.00667993
Mn4Cr2Ga3C3,0.006720815
V4Ti2Zn3C3,0.006762447
Zr4Y2Tl3N3,0.006830111
Hf4Mo2Ga3C3,0.006945126
Nb4Hf2Sn3C3,0.006961774
V4Cr2Ga3C3,0.007016888
Zr4Hf2Tl3N3,0.007057587
Cr4Hf2Ga3C3,0.007060824
W4Lu2Ga3C3,0.007103651
Sc4Sc2Sb3C3,0.007150657
Hf4Ta2Al3C3,0.007171337
V4Hf2Ga3N3,0.007188227
Hf4Zr2S3C3,0.007212056
Hf4Ta2In3C3,0.007494251
Lu4Lu2Bi3C3,0.00750933
Ti4Sc2Sn3C3,0.007525545
Zr4Hf2Cd3N3,0.007687445
Zr4Y2In3N3,0.00774992
Nb4Nb2As3C3,0.00776264
Sc4Zr2Sn3C3,0.007789135
Ti4Ta2Sn3C3,0.007835787
Zr4Nb2In3C3,0.007969664
Mn4Y2Al3C3,0.008076565
Zr4Nb2Ga3C3,0.008096512
Nb4Hf2Ge3C3,0.008221169
Ta4Ti2In3C3,0.008236593
Nb4V2Ga3C3,0.008371705
Ta4Y2Al3C3,0.008377944
Mo4Lu2In3C3,0.008409901
Ta4Nb2Au3C3,0.008420468
Ti4Ti2Tl3C3,0.00857797
Lu4Sc2S3C3,0.00857891
Ti4V2As3C3,0.008620457
Sc4Lu2Cd3C3,0.008927366
Hf4Ti2Ga3C3,0.009035293
Cr4Nb2Ge3C3,0.009189676
Hf4Hf2Pb3C3,0.009283665
Sc4W2In3C3,0.009324766
Ti4Lu2In3N3,0.009332689
Lu4Nb2Pb3C3,0.009583058
Hf4Sc2In3N3,0.009654407
Lu4Zr2Pb3C3,0.009668006
Zr4Zr2Tl3N3,0.009684942
Nb4Zr2Sn3C3,0.009752285
V4Cr2Ge3C3,0.009806572
V4Cr2Al3C3,0.009819731
Ti4Ta2Tl3C3,0.009858117
Sc4Ti2In3N3,0.0098878
Nb4Sc2Zn3C3,0.009897429
Zr4Sc2S3C3,0.009963557
Hf4Zr2In3N3,0.00997142
Ti4Ti2Ge3N3,0.010125207
Hf4Lu2In3N3,0.010137651
Zr4Hf2Sn3C3,0.010317048
Zr4Zr2Pb3C3,0.010317466
Sc4Lu2S3C3,0.010343512
Lu4Nb2Tl3C3,0.010349001
Zr4Ta2P3C3,0.010380116
Zr4Hf2S3C3,0.010401897
Nb4Ta2Al3C3,0.010426989
Mo4Nb2Ga3C3,0.010482923
Nb4Y2Ga3C3,0.01049167
Zr4Zr2In3N3,0.010529378
Sc4Mo2Pb3C3,0.010666241
Ti4Mo2Al3C3,0.010750053
Ti4Ti2Cd3N3,0.010797102
Ta4Sc2Ge3C3,0.010803802
Nb4Ta2Au3C3,0.01081329
Zr4Ta2S3C3,0.010844727
Mn4Mn2Zn3C3,0.010869879
Lu4W2Si3C3,0.011059616
Sc4Sc2In3C3,0.011090922
Ti4Y2Ga3N3,0.0111657
Ti4Zr2Ga3N3,0.011272552
W4Sc2Zn3C3,0.011292455
Hf4Hf2Sn3C3,0.011333914
Ti4V2Sn3C3,0.011349607
Hf4Lu2Tl3N3,0.011352798
Ti4Hf2Sn3C3,0.011359252
Mn4Zr2Al3C3,0.011449977
Zr4Y2Cd3N3,0.011492594
Ti4V2Al3C3,0.011519751
Zr4Zr2S3C3,0.011557504
Ta4Lu2Zn3C3,0.011691745
Ti4Nb2Tl3C3,0.011743435
Zr4Nb2Ge3C3,0.011748783
Hf4Zr2Tl3C3,0.012064216
V4W2Al3C3,0.01209795
Sc4Nb2Cd3C3,0.012124483
Nb4Nb2Al3C3,0.012147103
Ti4Sc2Al3C3,0.01220588
Nb4Hf2P3C3,0.012293381
V4Ti2In3C3,0.012352798
Sc4Ta2Sn3C3,0.012448504
Zr4Nb2S3C3,0.012492483
Nb4Zr2Cd3C3,0.01256706
Ti4Hf2Cd3C3,0.012750648
Ti4V2Zn3C3,0.012792722
Ti4Lu2Sn3C3,0.012824442
Sc4V2Ga3C3,0.012846866
Mn4V2Zn3C3,0.012866732
Ta4Zr2P3C3,0.01288852
V4Zr2Zn3C3,0.012898519
Ta4V2As3C3,0.012962707
Hf4Nb2P3C3,0.01296401
Zr4Ti2In3N3,0.012984986
Mo4Ti2Ge3C3,0.013097356
Cr4Mo2Al3C3,0.013157846
Hf4Hf2In3C3,0.013174883
Hf4Zr2Sn3C3,0.013258447
Mo4V2Ga3C3,0.013302037
Hf4W2Al3C3,0.013444782
Hf4Ti2Cd3N3,0.01350821
Lu4Zr2S3C3,0.013571418
Cr4Zr2Zn3C3,0.013574857
Lu4Ta2Ga3C3,0.013574922
Sc4Y2Pb3C3,0.01368845
Sc4W2Zn3C3,0.013707886
Mn4Nb2Zn3C3,0.013790455
Ti4Lu2In3C3,0.014041536
Zr4Ta2Tl3C3,0.014045052
Zr4Hf2In3C3,0.014181456
Ti4Ta2P3C3,0.014195097
Cr4Ta2Ga3C3,0.01430699
Sc4Ti2Sn3C3,0.014309663
Mo4Zr2Ge3C3,0.014427208
V4Hf2Al3N3,0.01446119
Sc4Nb2Ga3C3,0.014479514
Lu4Nb2Ga3C3,0.014488966
Sc4Mn2Zn3C3,0.014531645
Lu4Nb2In3C3,0.014556491
Mn4Hf2Ga3C3,0.014612711
Ta4Hf2Zn3C3,0.014630315
Mn4Ti2Ge3C3,0.01465907
Hf4Sc2Tl3N3,0.014662175
Zr4Zr2Tl3C3,0.014666575
Nb4Ti2Zn3C3,0.014724861
Zr4Zr2Ga3C3,0.014759377
Sc4Sc2Pb3N3,0.014824629
Zr4Hf2Tl3C3,0.014949984
Hf4Ti2In3C3,0.015029316
Cr4W2Al3C3,0.01504456
Zr4Ta2In3C3,0.015069542
V4Lu2Ga3N3,0.015080403
Ta4Hf2As3C3,0.015095982
Ti4Nb2Au3C3,0.015195297
Mo4Ta2Ga3C3,0.015201357
Sc4Lu2Tl3C3,0.015363674
Zr4Ti2Ga3C3,0.015484643
Hf4Ta2Ge3C3,0.015496425
V4Lu2Al3N3,0.015585073
Ta4V2P3C3,0.015607
Sc4Hf2Pb3C3,0.015763361
Ta4V2Al3C3,0.015841683
Hf4Zr2In3C3,0.016061347
Zr4Ti2Cd3N3,0.01611159
V4Lu2Co3C3,0.01611473
Hf4Hf2Al3C3,0.016154438
Nb4Nb2P3C3,0.016219879
Zr4Nb2P3C3,0.0163435
Ti4W2Zn3C3,0.016348055
Lu4Mo2Sn3C3,0.016379792
Nb4Hf2Al3C3,0.016451688
Sc4Ta2Al3C3,0.016510941
Cr4Y2Zn3C3,0.016514903
V4Ti2Zn3N3,0.016569098
Hf4Lu2Cd3N3,0.016740464
Zr4Sc2In3N3,0.016834414
V4Ti2Ge3N3,0.0170648
Cr4Cr2Ge3C3,0.017085215
Sc4Ti2Pb3C3,0.017115
Nb4Ta2In3C3,0.017612213
Lu4W2Zn3C3,0.017718256
Ti4Mo2Sn3C3,0.017742462
Ti4Zr2Tl3N3,0.017845783
Zr4Lu2In3C3,0.017877592
V4Nb2As3C3,0.01787977
Hf4Sc2S3C3,0.017898759
Ti4Sc2Sn3N3,0.018050728
Sc4Nb2Ge3C3,0.018104687
Ti4Zr2Pb3C3,0.018155565
Zr4Hf2Pb3C3,0.01817796
Nb4Sc2Cd3C3,0.018263863
Hf4Ti2Sn3C3,0.018274842
Lu4W2Sn3C3,0.018275123
Ti4Zr2Ge3C3,0.018386614
Sc4Nb2Al3C3,0.018450616
Nb4Zr2As3C3,0.018456787
Sc4Cr2Al3C3,0.01849227
Mn4Sc2Si3C3,0.018514834
Ti4Lu2Al3C3,0.018556042
W4Ti2Ga3C3,0.018571818
Ti4Ta2Si3C3,0.01859472
Lu4Sc2Ge3C3,0.018616887
Hf4Ti2Ga3N3,0.018639069
Sc4Ta2Tl3C3,0.018726144
V4Nb2Zn3C3,0.01872952
Ti4Ti2Au3N3,0.01875839
Mn4Nb2Ga3C3,0.018785432
Ta4Hf2Al3C3,0.018839711
Ta4V2Ga3C3,0.018840784
Ti4Hf2Pb3C3,0.018856265
Ti4Ti2Zn3C3,0.018909832
Mo4Mo2Ga3C3,0.018924655
Zr4Lu2Sn3C3,0.018943002
Ti4Cr2As3C3,0.01899762
Mo4Sc2In3C3,0.018998621
Ti4Nb2Zn3C3,0.019083116
Ta4Zr2Zn3C3,0.019131174
Hf4Ta2Sn3C3,0.01913796
Lu4Hf2Pb3C3,0.019200401
Nb4Nb2In3C3,0.019209418
Hf4Nb2Al3C3,0.019218968
Hf4W2P3C3,0.019236095
Zr4Ta2Sn3C3,0.019238831
Ti4Hf2Tl3N3,0.019247739
Lu4Y2Tl3C3,0.019250201
Sc4Sc2Sn3N3,0.01936647
Sc4Mo2Si3C3,0.01941704
Nb4Hf2Zn3C3,0.019435285
Mn4Mn2Al3C3,0.01955331
Sc4Ti2Tl3N3,0.019712519
Hf4Hf2Ga3N3,0.019717759
Nb4Mo2Ga3C3,0.019841274
Zr4Lu2Pb3C3,0.019847352
V4V2Ga3N3,0.019921273
Hf4Lu2Ga3N3,0.020013662
Zr4Sc2Sn3C3,0.020023346
Ta4Sc2In3C3,0.02003004
Lu4W2Ge3C3,0.020075891
V4Ta2As3C3,0.020139435
V4Sc2Si3C3,0.020189954
Ti4Ta2Au3C3,0.020259656
Ti4Lu2Zn3N3,0.020275394
Ti4Mo2In3C3,0.020312434
Zr4Y2Al3N3,0.020317752
Ti4Ti2Si3C3,0.02036789
Sc4Ta2Ge3C3,0.020471845
V4Y2Al3N3,0.020514527
Zr4Ti2Sn3C3,0.020526273
Mo4Y2In3C3,0.020546379
Mn4Ti2Al3C3,0.020560967
Nb4Hf2S3C3,0.020715516
Hf4Y2Al3N3,0.020901624
V4Ta2P3C3,0.02090431
Hf4Y2Tl3N3,0.020994922
Zr4Hf2Ga3C3,0.021018816
Nb4Y2Cd3C3,0.021193149
Sc4Lu2In3C3,0.021217445
Sc4Hf2In3N3,0.021253426
V4Mo2Al3C3,0.021296246
Mn4Sc2Ge3C3,0.021386184
Ti4Sc2Pb3C3,0.021426838
Zr4Ta2Ge3C3,0.021476151
Zr4Hf2Ga3N3,0.021609109
Lu4Nb2Ge3C3,0.021645682
Sc4Sc2Cd3C3,0.021732204
Zr4Ti2Tl3N3,0.021732582
Ti4V2Zn3N3,0.021745054
Cr4Lu2Fe3C3,0.021745576
Hf4Ta2Zn3C3,0.021841016
W4Lu2Zn3C3,0.021915188
Mo4Ti2Al3C3,0.02195354
Hf4V2Al3C3,0.021984639
Ti4Nb2Cd3C3,0.022044513
Ta4Zr2In3C3,0.022095973
Ti4Ta2Zn3C3,0.022184856
Ti4Zr2Tl3C3,0.02221495
Nb4V2Al3C3,0.022267915
Lu4Mo2Al3C3,0.02230783
Ti4Hf2Tl3C3,0.022337584
V4Zr2Co3C3,0.022413598
Cr4Sc2Fe3C3,0.02242746
Ta4Nb2Ge3C3,0.022449985
Lu4Nb2Sn3C3,0.022651015
V4Nb2Au3C3,0.022659915
Zr4Zr2Cd3N3,0.022708444
Hf4Ti2Tl3C3,0.022728303
Nb4Y2In3C3,0.022747329
V4Hf2Cd3C3,0.022836125
V4Y2Ga3C3,0.022905257
Zr4Nb2Tl3C3,0.02294732
W4Y2Zn3C3,0.022947416
Ti4Lu2Cd3N3,0.023021067
Ti4Sc2Ge3N3,0.02302464
Hf4Hf2S3C3,0.023043903
Hf4Hf2In3N3,0.023050679
Ti4Sc2Cd3N3,0.02308054
V4Nb2In3C3,0.023105277
Lu4Sc2Tl3C3,0.023188254
Zr4Zr2Al3C3,0.023195967
Hf4Ti2Ge3C3,0.02334103
Hf4Ti2Al3C3,0.023341535
Zr4Ti2Pb3C3,0.02340518
Ti4Nb2Sb3C3,0.023507167
Sc4Lu2Sn3N3,0.023519289
Lu4Lu2Tl3C3,0.023575658
Hf4Ti2S3C3,0.023584746
Hf4Sc2Pb3C3,0.023612248
V4Mo2Ge3C3,0.023698958
V4V2Al3N3,0.023813983
Hf4Zr2Tl3N3,0.023826458
Cr4Lu2Ni3C3,0.023829227
V4Sc2Ge3C3,0.023980841
Hf4Zr2Cd3N3,0.024051856
Sc4Zr2Pb3N3,0.024265999
V4Zr2Cd3C3,0.024375819
Hf4Nb2Zn3C3,0.024385538
Nb4Ti2Cd3C3,0.024489813
Zr4Mo2Ge3C3,0.024492094
Mo4Zr2Zn3C3,0.024522109
Zr4Nb2Cd3C3,0.02453601
Nb4W2Ga3C3,0.024673223
V4Sc2Zn3N3,0.024728691
Ti4Cr2Ge3C3,0.02475587
Mo4V2Al3C3,0.024761805
Hf4Zr2Ga3C3,0.024765037
Hf4Nb2Ge3C3,0.024876589
Ta4Sc2Zn3C3,0.024919156
Sc4Hf2S3C3,0.025103545
V4Hf2Ge3C3,0.02510596
Sc4V2In3C3,0.025174743
V4V2Ga3C3,0.02521572
Ta4Sc2Cd3C3,0.025323404
Ta4Y2Co3C3,0.025449555
Mn4Cr2Zn3C3,0.025515469
Cr4Mo2Ga3C3,0.025531918
Zr4Ti2Tl3C3,0.025600333
V4V2P3C3,0.025717823
Zr4Ti2Al3C3,0.025936207
Hf4Nb2Sn3C3,0.025990851
Ta4Hf2In3C3,0.026103785
Zr4Zr2Ga3N3,0.02618964
Nb4Nb2Sn3C3,0.026220836
Sc4Cr2Ge3C3,0.026236512
Nb4Ti2Sb3C3,0.026243446
Y4Zr2Tl3N3,0.026253352
Hf4Ti2Pb3C3,0.026290122
Hf4Zr2Ga3N3,0.026305549
Hf4Ti2Tl3N3,0.026311828
Nb4Ta2Ge3C3,0.026335925
Hf4Ti2Al3N3,0.026361428
Mn4Ti2Zn3C3,0.026802357
Ti4Sc2In3C3,0.026809547
Mn4Hf2Zn3C3,0.026812142
Zr4Sc2Cd3N3,0.026894188
V4Ti2Au3C3,0.026921576
Ti4Ti2Tl3N3,0.02694901
Ti4Sc2Tl3N3,0.026997093
W4Y2Ga3C3,0.027079325
Lu4Ta2Pb3C3,0.027168714
Ti4Lu2Ga3C3,0.027272986
Sc4Lu2Sb3C3,0.02729237
Lu4Y2Cd3C3,0.027384073
Sc4Ta2Cd3C3,0.027414873
Ti4Cr2Al3C3,0.027432252
Cr4Sc2Cd3C3,0.027463665
Ti4Y2In3N3,0.027573284
V4Ti2Sn3C3,0.027709562
Y4W2Ga3C3,0.027853258
Mo4Y2Cd3C3,0.027953602
V4Lu2Ni3C3,0.02802366
Y4Hf2Tl3N3,0.0280872
Hf4Nb2Tl3C3,0.028093362
Y4W2Al3C3,0.028204799
Hf4V2Ga3C3,0.028206838
Ti4Ta2Cd3C3,0.028211951
Y4Nb2Tl3C3,0.028221155
V4Sc2Fe3C3,0.028249383
Mn4V2Ga3C3,0.028282281
Hf4Hf2Cd3C3,0.028284134
Zr4Lu2Cd3N3,0.028289353
Ta4Lu2Cd3C3,0.028295271
Lu4Ta2Tl3C3,0.028359648
Sc4Lu2Tl3N3,0.028456433
Nb4V2Sn3C3,0.028516673
Ta4Ti2Sn3C3,0.028562643
V4Ti2Cd3C3,0.028852211
Hf4Ta2Cd3C3,0.028897798
Sc4Lu2Zn3C3,0.028992977
Sc4Cr2Zn3C3,0.02899693
Cr4Lu2Co3C3,0.02900064
Zr4W2Al3C3,0.02909412
Nb4Mo2Ge3C3,0.029148571
Nb4Lu2Sn3C3,0.029212283
Mo4Zr2In3C3,0.02928616
Ti4V2Ge3N3,0.029315472
Mn4Cr2Al3C3,0.029352224
Cr4Sc2Co3C3,0.029418686
Hf4Hf2Zn3C3,0.02944274
Zr4Ti2S3C3,0.02946021
Ti4Ti2As3C3,0.02963343
V4Mn2Ga3C3,0.02968122
Sc4Ti2Pb3N3,0.029736409
Mn4V2Al3C3,0.029739898
Nb4Nb2Au3C3,0.029819801
Cr4Mn2Ge3C3,0.030072553
Ta4Ta2Ge3C3,0.030169524
Zr4Zr2Al3N3,0.030189333
Mn4Mn2Ge3C3,0.030234417
Zr4Ti2Ga3N3,0.030260742
Ti4Ti2Bi3C3,0.030281382
Hf4Nb2Cd3C3,0.030296389
Sc4Hf2Sn3C3,0.030308373
Mn4V2Ge3C3,0.030416662
Ti4Zr2S3C3,0.030417483
V4Mo2Ga3C3,0.030466346
Zr4Y2Ga3N3,0.030590339
Ti4Lu2Tl3N3,0.030659081
Hf4Zr2Al3N3,0.03070079
Sc4W2Sn3C3,0.03070921
Zr4Ta2As3C3,0.030769711
Zr4Sc2In3C3,0.030795287
Ta4Zr2As3C3,0.030796146
Hf4Sc2Ga3N3,0.030847758
Ti4Ti2Cd3C3,0.030855661
V4V2Zn3C3,0.030860014
Ti4Hf2Au3C3,0.030878056
Hf4Y2Ga3N3,0.030880127
Sc4Mo2S3C3,0.030935947
Y4Lu2Bi3C3,0.030944962
Sc4Nb2Zn3C3,0.031120684
Mo4Cr2Ga3C3,0.03113297
Zr4Nb2As3C3,0.03116116
Lu4Zr2Tl3N3,0.031169543
Mo4Mn2Ga3C3,0.031171948
Zr4Lu2Ga3N3,0.031177683
Ta4Ti2Zn3C3,0.031198395
Mn4Lu2Ni3C3,0.031205397
Nb4Y2Zn3C3,0.03121544
Mo4Hf2Al3C3,0.031244813
Zr4V2In3C3,0.03126024
Sc4Zr2Tl3N3,0.031264935
Sc4Ti2Ga3N3,0.031333625
V4Nb2Sn3C3,0.03139788
Ta4V2Au3C3,0.03148744
Y4Mo2Ga3C3,0.031517852
Sc4Y2Bi3C3,0.03155352
Sc4Nb2S3C3,0.031555716
V4Ta2In3C3,0.03158253
Cr4Mo2Ge3C3,0.031596597
Hf4V2Zn3C3,0.03170547
Nb4V2As3C3,0.03179109
Zr4Hf2Al3C3,0.031817406
Hf4Zr2Cd3C3,0.031835925
Sc4Ti2Ge3C3,0.031918187
Zr4Ta2Cd3C3,0.03197137
Ti4Ti2Sn3N3,0.03202612
Zr4Mo2In3C3,0.03206764
Sc4Ti2Sn3N3,0.032107726
Sc4Sc2Tl3N3,0.03211711
Ti4Nb2Ga3N3,0.032198552
Sc4Zr2Sn3N3,0.03231678
Mo4Lu2Cu3C3,0.032337815
Zr4V2Ga3C3,0.032339916
W4Zr2Ga3C3,0.0324576
Y4Y2Tl3C3,0.032483034
Sc4Mn2Cd3C3,0.032568857
Ti4V2Cd3C3,0.032570988
Hf4Hf2Ge3C3,0.03266068
Nb4Hf2Cd3C3,0.032686513
Zr4Lu2S3C3,0.0327737
Zr4Hf2Al3N3,0.03282276
Ta4Y2Ga3C3,0.032924864
Sc4Hf2Pb3N3,0.032928262
Hf4Hf2Al3N3,0.03295967
Mn4Mo2Ga3C3,0.032998607
Lu4Zr2Sn3C3,0.033089828
V4Cr2As3C3,0.03312075
Zr4Zr2Cd3C3,0.033123836
V4Zr2Ni3C3,0.033143
Ti4Lu2Pb3C3,0.0332447
Ti4Ta2Ga3N3,0.03326629
Lu4Ta2Sn3C3,0.03336923
Sc4Zr2In3N3,0.03342146
V4Nb2Ga3N3,0.03342979
Mn4Sc2Co3C3,0.033459686
Ti4Y2Al3C3,0.033477873
Ta4Mo2Ga3C3,0.03348032
Sc4Y2In3C3,0.033523973
Hf4Ti2Zn3N3,0.03366426
Nb4Cr2Ge3C3,0.033669215
Cr4Ti2Zn3C3,0.033680193
Sc4Lu2In3N3,0.03370194
Hf4Hf2Cd3N3,0.034122154
Cr4Sc2Cu3C3,0.03418215
Nb4V2In3C3,0.03424659
Hf4V2In3C3,0.03426912
Y4Ta2Tl3C3,0.034325607
Ta4W2Ga3C3,0.034326825
Zr4Lu2Pb3N3,0.034346107
Hf4Y2Cd3N3,0.034368128
Zr4Mo2P3C3,0.034369774
Nb4W2Al3C3,0.034449343
V4Sc2Cd3C3,0.034578644
Zr4Nb2Zn3C3,0.034589026
Ti4Nb2Si3C3,0.03462408
Mn4Sc2Cd3C3,0.03467508
Ti4Ti2S3N3,0.03467677
Ti4Nb2Pb3C3,0.034719523
Zr4Hf2Bi3C3,0.034747813
Ti4Zr2Cu3C3,0.03486516
Mn4Hf2Al3C3,0.034911588
Ti4Sc2Ge3C3,0.034974232
V4Zr2Ge3C3,0.0350548
Ta4Y2Fe3C3,0.035147257
Mn4Lu2Fe3C3,0.035161614
V4Zr2Cu3C3,0.035173316
Ti4Zr2Au3C3,0.035219803
Zr4Zr2Bi3C3,0.035246808
Mo4Hf2Ge3C3,0.035328377
Sc4Hf2Tl3N3,0.03533209
Mo4Mo2Al3C3,0.035455104
Sc4Lu2Pb3N3,0.035455916
Sc4V2Ge3C3,0.035460133
Nb4Mo2Al3C3,0.03554092
Zr4Hf2Ge3C3,0.035548743
Lu4Ti2Pb3C3,0.035639793
Hf4Sc2Sn3C3,0.035652645
V4Sc2Al3N3,0.035697453
Ta4Ta2In3C3,0.03569967
Ta4Lu2Co3C3,0.035825465
Ti4Hf2Si3C3,0.035873123
Ta4Ta2Zn3C3,0.036017496
Cr4Mn2Zn3C3,0.03608669
Ti4W2Si3C3,0.036108945
Ta4Zr2Cd3C3,0.03611993
Lu4Nb2Al3C3,0.03612215
Ti4Sc2Zn3C3,0.03619282
Zr4Ta2Zn3C3,0.036247674
Zr4V2Zn3C3,0.036258053
V4Zr2Fe3C3,0.0362981
Ta4Nb2In3C3,0.03630204
Ti4Hf2Bi3C3,0.03630363
Hf4Sc2Cd3N3,0.036319
Lu4Ta2In3C3,0.03640119
W4Ti2Al3C3,0.03668251
V4Ta2Si3C3,0.03672519
V4Zr2In3C3,0.036794994
Ti4Y2Cd3N3,0.036861505
Mn4Cr2Ge3C3,0.036994077
Ti4Mn2Ga3C3,0.037031513
Zr4Lu2Al3C3,0.037045155
Ti4Lu2Zn3C3,0.03728124
Hf4Lu2Al3N3,0.037284046
Sc4Cr2In3C3,0.037328426
Nb4Zr2Tl3C3,0.037381675
Sc4Sc2In3N3,0.03741511
Ti4Mo2Zn3C3,0.037503034
Sc4V2Cd3C3,0.03755781
Lu4Lu2In3C3,0.037611358
Cr4Sc2Ni3C3,0.037633374
Ti4V2In3N3,0.037639298
Sc4Nb2In3N3,0.037657864